Start File for LAMMPS
1458 atoms
1 atom types

0.0 29.79 xlo xhi
0.0 29.79 ylo yhi
0.0 29.79 zlo zhi

Masses

1 47.68 

Atoms

1 1 0.0 0.0 0.0
2 1 1.655 1.655 1.655
3 1 0.0 0.0 3.31
4 1 1.655 1.655 4.965
5 1 0.0 0.0 6.62
6 1 1.655 1.655 8.275
7 1 0.0 0.0 9.93
8 1 1.655 1.655 11.584999999999999
9 1 0.0 0.0 13.24
10 1 1.655 1.655 14.895
11 1 0.0 0.0 16.55
12 1 1.655 1.655 18.205000000000002
13 1 0.0 0.0 19.86
14 1 1.655 1.655 21.515
15 1 0.0 0.0 23.17
16 1 1.655 1.655 24.825000000000003
17 1 0.0 0.0 26.48
18 1 1.655 1.655 28.135
19 1 0.0 3.31 0.0
20 1 1.655 4.965 1.655
21 1 0.0 3.31 3.31
22 1 1.655 4.965 4.965
23 1 0.0 3.31 6.62
24 1 1.655 4.965 8.275
25 1 0.0 3.31 9.93
26 1 1.655 4.965 11.584999999999999
27 1 0.0 3.31 13.24
28 1 1.655 4.965 14.895
29 1 0.0 3.31 16.55
30 1 1.655 4.965 18.205000000000002
31 1 0.0 3.31 19.86
32 1 1.655 4.965 21.515
33 1 0.0 3.31 23.17
34 1 1.655 4.965 24.825000000000003
35 1 0.0 3.31 26.48
36 1 1.655 4.965 28.135
37 1 0.0 6.62 0.0
38 1 1.655 8.275 1.655
39 1 0.0 6.62 3.31
40 1 1.655 8.275 4.965
41 1 0.0 6.62 6.62
42 1 1.655 8.275 8.275
43 1 0.0 6.62 9.93
44 1 1.655 8.275 11.584999999999999
45 1 0.0 6.62 13.24
46 1 1.655 8.275 14.895
47 1 0.0 6.62 16.55
48 1 1.655 8.275 18.205000000000002
49 1 0.0 6.62 19.86
50 1 1.655 8.275 21.515
51 1 0.0 6.62 23.17
52 1 1.655 8.275 24.825000000000003
53 1 0.0 6.62 26.48
54 1 1.655 8.275 28.135
55 1 0.0 9.93 0.0
56 1 1.655 11.584999999999999 1.655
57 1 0.0 9.93 3.31
58 1 1.655 11.584999999999999 4.965
59 1 0.0 9.93 6.62
60 1 1.655 11.584999999999999 8.275
61 1 0.0 9.93 9.93
62 1 1.655 11.584999999999999 11.584999999999999
63 1 0.0 9.93 13.24
64 1 1.655 11.584999999999999 14.895
65 1 0.0 9.93 16.55
66 1 1.655 11.584999999999999 18.205000000000002
67 1 0.0 9.93 19.86
68 1 1.655 11.584999999999999 21.515
69 1 0.0 9.93 23.17
70 1 1.655 11.584999999999999 24.825000000000003
71 1 0.0 9.93 26.48
72 1 1.655 11.584999999999999 28.135
73 1 0.0 13.24 0.0
74 1 1.655 14.895 1.655
75 1 0.0 13.24 3.31
76 1 1.655 14.895 4.965
77 1 0.0 13.24 6.62
78 1 1.655 14.895 8.275
79 1 0.0 13.24 9.93
80 1 1.655 14.895 11.584999999999999
81 1 0.0 13.24 13.24
82 1 1.655 14.895 14.895
83 1 0.0 13.24 16.55
84 1 1.655 14.895 18.205000000000002
85 1 0.0 13.24 19.86
86 1 1.655 14.895 21.515
87 1 0.0 13.24 23.17
88 1 1.655 14.895 24.825000000000003
89 1 0.0 13.24 26.48
90 1 1.655 14.895 28.135
91 1 0.0 16.55 0.0
92 1 1.655 18.205000000000002 1.655
93 1 0.0 16.55 3.31
94 1 1.655 18.205000000000002 4.965
95 1 0.0 16.55 6.62
96 1 1.655 18.205000000000002 8.275
97 1 0.0 16.55 9.93
98 1 1.655 18.205000000000002 11.584999999999999
99 1 0.0 16.55 13.24
100 1 1.655 18.205000000000002 14.895
101 1 0.0 16.55 16.55
102 1 1.655 18.205000000000002 18.205000000000002
103 1 0.0 16.55 19.86
104 1 1.655 18.205000000000002 21.515
105 1 0.0 16.55 23.17
106 1 1.655 18.205000000000002 24.825000000000003
107 1 0.0 16.55 26.48
108 1 1.655 18.205000000000002 28.135
109 1 0.0 19.86 0.0
110 1 1.655 21.515 1.655
111 1 0.0 19.86 3.31
112 1 1.655 21.515 4.965
113 1 0.0 19.86 6.62
114 1 1.655 21.515 8.275
115 1 0.0 19.86 9.93
116 1 1.655 21.515 11.584999999999999
117 1 0.0 19.86 13.24
118 1 1.655 21.515 14.895
119 1 0.0 19.86 16.55
120 1 1.655 21.515 18.205000000000002
121 1 0.0 19.86 19.86
122 1 1.655 21.515 21.515
123 1 0.0 19.86 23.17
124 1 1.655 21.515 24.825000000000003
125 1 0.0 19.86 26.48
126 1 1.655 21.515 28.135
127 1 0.0 23.17 0.0
128 1 1.655 24.825000000000003 1.655
129 1 0.0 23.17 3.31
130 1 1.655 24.825000000000003 4.965
131 1 0.0 23.17 6.62
132 1 1.655 24.825000000000003 8.275
133 1 0.0 23.17 9.93
134 1 1.655 24.825000000000003 11.584999999999999
135 1 0.0 23.17 13.24
136 1 1.655 24.825000000000003 14.895
137 1 0.0 23.17 16.55
138 1 1.655 24.825000000000003 18.205000000000002
139 1 0.0 23.17 19.86
140 1 1.655 24.825000000000003 21.515
141 1 0.0 23.17 23.17
142 1 1.655 24.825000000000003 24.825000000000003
143 1 0.0 23.17 26.48
144 1 1.655 24.825000000000003 28.135
145 1 0.0 26.48 0.0
146 1 1.655 28.135 1.655
147 1 0.0 26.48 3.31
148 1 1.655 28.135 4.965
149 1 0.0 26.48 6.62
150 1 1.655 28.135 8.275
151 1 0.0 26.48 9.93
152 1 1.655 28.135 11.584999999999999
153 1 0.0 26.48 13.24
154 1 1.655 28.135 14.895
155 1 0.0 26.48 16.55
156 1 1.655 28.135 18.205000000000002
157 1 0.0 26.48 19.86
158 1 1.655 28.135 21.515
159 1 0.0 26.48 23.17
160 1 1.655 28.135 24.825000000000003
161 1 0.0 26.48 26.48
162 1 1.655 28.135 28.135
163 1 3.31 0.0 0.0
164 1 4.965 1.655 1.655
165 1 3.31 0.0 3.31
166 1 4.965 1.655 4.965
167 1 3.31 0.0 6.62
168 1 4.965 1.655 8.275
169 1 3.31 0.0 9.93
170 1 4.965 1.655 11.584999999999999
171 1 3.31 0.0 13.24
172 1 4.965 1.655 14.895
173 1 3.31 0.0 16.55
174 1 4.965 1.655 18.205000000000002
175 1 3.31 0.0 19.86
176 1 4.965 1.655 21.515
177 1 3.31 0.0 23.17
178 1 4.965 1.655 24.825000000000003
179 1 3.31 0.0 26.48
180 1 4.965 1.655 28.135
181 1 3.31 3.31 0.0
182 1 4.965 4.965 1.655
183 1 3.31 3.31 3.31
184 1 4.965 4.965 4.965
185 1 3.31 3.31 6.62
186 1 4.965 4.965 8.275
187 1 3.31 3.31 9.93
188 1 4.965 4.965 11.584999999999999
189 1 3.31 3.31 13.24
190 1 4.965 4.965 14.895
191 1 3.31 3.31 16.55
192 1 4.965 4.965 18.205000000000002
193 1 3.31 3.31 19.86
194 1 4.965 4.965 21.515
195 1 3.31 3.31 23.17
196 1 4.965 4.965 24.825000000000003
197 1 3.31 3.31 26.48
198 1 4.965 4.965 28.135
199 1 3.31 6.62 0.0
200 1 4.965 8.275 1.655
201 1 3.31 6.62 3.31
202 1 4.965 8.275 4.965
203 1 3.31 6.62 6.62
204 1 4.965 8.275 8.275
205 1 3.31 6.62 9.93
206 1 4.965 8.275 11.584999999999999
207 1 3.31 6.62 13.24
208 1 4.965 8.275 14.895
209 1 3.31 6.62 16.55
210 1 4.965 8.275 18.205000000000002
211 1 3.31 6.62 19.86
212 1 4.965 8.275 21.515
213 1 3.31 6.62 23.17
214 1 4.965 8.275 24.825000000000003
215 1 3.31 6.62 26.48
216 1 4.965 8.275 28.135
217 1 3.31 9.93 0.0
218 1 4.965 11.584999999999999 1.655
219 1 3.31 9.93 3.31
220 1 4.965 11.584999999999999 4.965
221 1 3.31 9.93 6.62
222 1 4.965 11.584999999999999 8.275
223 1 3.31 9.93 9.93
224 1 4.965 11.584999999999999 11.584999999999999
225 1 3.31 9.93 13.24
226 1 4.965 11.584999999999999 14.895
227 1 3.31 9.93 16.55
228 1 4.965 11.584999999999999 18.205000000000002
229 1 3.31 9.93 19.86
230 1 4.965 11.584999999999999 21.515
231 1 3.31 9.93 23.17
232 1 4.965 11.584999999999999 24.825000000000003
233 1 3.31 9.93 26.48
234 1 4.965 11.584999999999999 28.135
235 1 3.31 13.24 0.0
236 1 4.965 14.895 1.655
237 1 3.31 13.24 3.31
238 1 4.965 14.895 4.965
239 1 3.31 13.24 6.62
240 1 4.965 14.895 8.275
241 1 3.31 13.24 9.93
242 1 4.965 14.895 11.584999999999999
243 1 3.31 13.24 13.24
244 1 4.965 14.895 14.895
245 1 3.31 13.24 16.55
246 1 4.965 14.895 18.205000000000002
247 1 3.31 13.24 19.86
248 1 4.965 14.895 21.515
249 1 3.31 13.24 23.17
250 1 4.965 14.895 24.825000000000003
251 1 3.31 13.24 26.48
252 1 4.965 14.895 28.135
253 1 3.31 16.55 0.0
254 1 4.965 18.205000000000002 1.655
255 1 3.31 16.55 3.31
256 1 4.965 18.205000000000002 4.965
257 1 3.31 16.55 6.62
258 1 4.965 18.205000000000002 8.275
259 1 3.31 16.55 9.93
260 1 4.965 18.205000000000002 11.584999999999999
261 1 3.31 16.55 13.24
262 1 4.965 18.205000000000002 14.895
263 1 3.31 16.55 16.55
264 1 4.965 18.205000000000002 18.205000000000002
265 1 3.31 16.55 19.86
266 1 4.965 18.205000000000002 21.515
267 1 3.31 16.55 23.17
268 1 4.965 18.205000000000002 24.825000000000003
269 1 3.31 16.55 26.48
270 1 4.965 18.205000000000002 28.135
271 1 3.31 19.86 0.0
272 1 4.965 21.515 1.655
273 1 3.31 19.86 3.31
274 1 4.965 21.515 4.965
275 1 3.31 19.86 6.62
276 1 4.965 21.515 8.275
277 1 3.31 19.86 9.93
278 1 4.965 21.515 11.584999999999999
279 1 3.31 19.86 13.24
280 1 4.965 21.515 14.895
281 1 3.31 19.86 16.55
282 1 4.965 21.515 18.205000000000002
283 1 3.31 19.86 19.86
284 1 4.965 21.515 21.515
285 1 3.31 19.86 23.17
286 1 4.965 21.515 24.825000000000003
287 1 3.31 19.86 26.48
288 1 4.965 21.515 28.135
289 1 3.31 23.17 0.0
290 1 4.965 24.825000000000003 1.655
291 1 3.31 23.17 3.31
292 1 4.965 24.825000000000003 4.965
293 1 3.31 23.17 6.62
294 1 4.965 24.825000000000003 8.275
295 1 3.31 23.17 9.93
296 1 4.965 24.825000000000003 11.584999999999999
297 1 3.31 23.17 13.24
298 1 4.965 24.825000000000003 14.895
299 1 3.31 23.17 16.55
300 1 4.965 24.825000000000003 18.205000000000002
301 1 3.31 23.17 19.86
302 1 4.965 24.825000000000003 21.515
303 1 3.31 23.17 23.17
304 1 4.965 24.825000000000003 24.825000000000003
305 1 3.31 23.17 26.48
306 1 4.965 24.825000000000003 28.135
307 1 3.31 26.48 0.0
308 1 4.965 28.135 1.655
309 1 3.31 26.48 3.31
310 1 4.965 28.135 4.965
311 1 3.31 26.48 6.62
312 1 4.965 28.135 8.275
313 1 3.31 26.48 9.93
314 1 4.965 28.135 11.584999999999999
315 1 3.31 26.48 13.24
316 1 4.965 28.135 14.895
317 1 3.31 26.48 16.55
318 1 4.965 28.135 18.205000000000002
319 1 3.31 26.48 19.86
320 1 4.965 28.135 21.515
321 1 3.31 26.48 23.17
322 1 4.965 28.135 24.825000000000003
323 1 3.31 26.48 26.48
324 1 4.965 28.135 28.135
325 1 6.62 0.0 0.0
326 1 8.275 1.655 1.655
327 1 6.62 0.0 3.31
328 1 8.275 1.655 4.965
329 1 6.62 0.0 6.62
330 1 8.275 1.655 8.275
331 1 6.62 0.0 9.93
332 1 8.275 1.655 11.584999999999999
333 1 6.62 0.0 13.24
334 1 8.275 1.655 14.895
335 1 6.62 0.0 16.55
336 1 8.275 1.655 18.205000000000002
337 1 6.62 0.0 19.86
338 1 8.275 1.655 21.515
339 1 6.62 0.0 23.17
340 1 8.275 1.655 24.825000000000003
341 1 6.62 0.0 26.48
342 1 8.275 1.655 28.135
343 1 6.62 3.31 0.0
344 1 8.275 4.965 1.655
345 1 6.62 3.31 3.31
346 1 8.275 4.965 4.965
347 1 6.62 3.31 6.62
348 1 8.275 4.965 8.275
349 1 6.62 3.31 9.93
350 1 8.275 4.965 11.584999999999999
351 1 6.62 3.31 13.24
352 1 8.275 4.965 14.895
353 1 6.62 3.31 16.55
354 1 8.275 4.965 18.205000000000002
355 1 6.62 3.31 19.86
356 1 8.275 4.965 21.515
357 1 6.62 3.31 23.17
358 1 8.275 4.965 24.825000000000003
359 1 6.62 3.31 26.48
360 1 8.275 4.965 28.135
361 1 6.62 6.62 0.0
362 1 8.275 8.275 1.655
363 1 6.62 6.62 3.31
364 1 8.275 8.275 4.965
365 1 6.62 6.62 6.62
366 1 8.275 8.275 8.275
367 1 6.62 6.62 9.93
368 1 8.275 8.275 11.584999999999999
369 1 6.62 6.62 13.24
370 1 8.275 8.275 14.895
371 1 6.62 6.62 16.55
372 1 8.275 8.275 18.205000000000002
373 1 6.62 6.62 19.86
374 1 8.275 8.275 21.515
375 1 6.62 6.62 23.17
376 1 8.275 8.275 24.825000000000003
377 1 6.62 6.62 26.48
378 1 8.275 8.275 28.135
379 1 6.62 9.93 0.0
380 1 8.275 11.584999999999999 1.655
381 1 6.62 9.93 3.31
382 1 8.275 11.584999999999999 4.965
383 1 6.62 9.93 6.62
384 1 8.275 11.584999999999999 8.275
385 1 6.62 9.93 9.93
386 1 8.275 11.584999999999999 11.584999999999999
387 1 6.62 9.93 13.24
388 1 8.275 11.584999999999999 14.895
389 1 6.62 9.93 16.55
390 1 8.275 11.584999999999999 18.205000000000002
391 1 6.62 9.93 19.86
392 1 8.275 11.584999999999999 21.515
393 1 6.62 9.93 23.17
394 1 8.275 11.584999999999999 24.825000000000003
395 1 6.62 9.93 26.48
396 1 8.275 11.584999999999999 28.135
397 1 6.62 13.24 0.0
398 1 8.275 14.895 1.655
399 1 6.62 13.24 3.31
400 1 8.275 14.895 4.965
401 1 6.62 13.24 6.62
402 1 8.275 14.895 8.275
403 1 6.62 13.24 9.93
404 1 8.275 14.895 11.584999999999999
405 1 6.62 13.24 13.24
406 1 8.275 14.895 14.895
407 1 6.62 13.24 16.55
408 1 8.275 14.895 18.205000000000002
409 1 6.62 13.24 19.86
410 1 8.275 14.895 21.515
411 1 6.62 13.24 23.17
412 1 8.275 14.895 24.825000000000003
413 1 6.62 13.24 26.48
414 1 8.275 14.895 28.135
415 1 6.62 16.55 0.0
416 1 8.275 18.205000000000002 1.655
417 1 6.62 16.55 3.31
418 1 8.275 18.205000000000002 4.965
419 1 6.62 16.55 6.62
420 1 8.275 18.205000000000002 8.275
421 1 6.62 16.55 9.93
422 1 8.275 18.205000000000002 11.584999999999999
423 1 6.62 16.55 13.24
424 1 8.275 18.205000000000002 14.895
425 1 6.62 16.55 16.55
426 1 8.275 18.205000000000002 18.205000000000002
427 1 6.62 16.55 19.86
428 1 8.275 18.205000000000002 21.515
429 1 6.62 16.55 23.17
430 1 8.275 18.205000000000002 24.825000000000003
431 1 6.62 16.55 26.48
432 1 8.275 18.205000000000002 28.135
433 1 6.62 19.86 0.0
434 1 8.275 21.515 1.655
435 1 6.62 19.86 3.31
436 1 8.275 21.515 4.965
437 1 6.62 19.86 6.62
438 1 8.275 21.515 8.275
439 1 6.62 19.86 9.93
440 1 8.275 21.515 11.584999999999999
441 1 6.62 19.86 13.24
442 1 8.275 21.515 14.895
443 1 6.62 19.86 16.55
444 1 8.275 21.515 18.205000000000002
445 1 6.62 19.86 19.86
446 1 8.275 21.515 21.515
447 1 6.62 19.86 23.17
448 1 8.275 21.515 24.825000000000003
449 1 6.62 19.86 26.48
450 1 8.275 21.515 28.135
451 1 6.62 23.17 0.0
452 1 8.275 24.825000000000003 1.655
453 1 6.62 23.17 3.31
454 1 8.275 24.825000000000003 4.965
455 1 6.62 23.17 6.62
456 1 8.275 24.825000000000003 8.275
457 1 6.62 23.17 9.93
458 1 8.275 24.825000000000003 11.584999999999999
459 1 6.62 23.17 13.24
460 1 8.275 24.825000000000003 14.895
461 1 6.62 23.17 16.55
462 1 8.275 24.825000000000003 18.205000000000002
463 1 6.62 23.17 19.86
464 1 8.275 24.825000000000003 21.515
465 1 6.62 23.17 23.17
466 1 8.275 24.825000000000003 24.825000000000003
467 1 6.62 23.17 26.48
468 1 8.275 24.825000000000003 28.135
469 1 6.62 26.48 0.0
470 1 8.275 28.135 1.655
471 1 6.62 26.48 3.31
472 1 8.275 28.135 4.965
473 1 6.62 26.48 6.62
474 1 8.275 28.135 8.275
475 1 6.62 26.48 9.93
476 1 8.275 28.135 11.584999999999999
477 1 6.62 26.48 13.24
478 1 8.275 28.135 14.895
479 1 6.62 26.48 16.55
480 1 8.275 28.135 18.205000000000002
481 1 6.62 26.48 19.86
482 1 8.275 28.135 21.515
483 1 6.62 26.48 23.17
484 1 8.275 28.135 24.825000000000003
485 1 6.62 26.48 26.48
486 1 8.275 28.135 28.135
487 1 9.93 0.0 0.0
488 1 11.584999999999999 1.655 1.655
489 1 9.93 0.0 3.31
490 1 11.584999999999999 1.655 4.965
491 1 9.93 0.0 6.62
492 1 11.584999999999999 1.655 8.275
493 1 9.93 0.0 9.93
494 1 11.584999999999999 1.655 11.584999999999999
495 1 9.93 0.0 13.24
496 1 11.584999999999999 1.655 14.895
497 1 9.93 0.0 16.55
498 1 11.584999999999999 1.655 18.205000000000002
499 1 9.93 0.0 19.86
500 1 11.584999999999999 1.655 21.515
501 1 9.93 0.0 23.17
502 1 11.584999999999999 1.655 24.825000000000003
503 1 9.93 0.0 26.48
504 1 11.584999999999999 1.655 28.135
505 1 9.93 3.31 0.0
506 1 11.584999999999999 4.965 1.655
507 1 9.93 3.31 3.31
508 1 11.584999999999999 4.965 4.965
509 1 9.93 3.31 6.62
510 1 11.584999999999999 4.965 8.275
511 1 9.93 3.31 9.93
512 1 11.584999999999999 4.965 11.584999999999999
513 1 9.93 3.31 13.24
514 1 11.584999999999999 4.965 14.895
515 1 9.93 3.31 16.55
516 1 11.584999999999999 4.965 18.205000000000002
517 1 9.93 3.31 19.86
518 1 11.584999999999999 4.965 21.515
519 1 9.93 3.31 23.17
520 1 11.584999999999999 4.965 24.825000000000003
521 1 9.93 3.31 26.48
522 1 11.584999999999999 4.965 28.135
523 1 9.93 6.62 0.0
524 1 11.584999999999999 8.275 1.655
525 1 9.93 6.62 3.31
526 1 11.584999999999999 8.275 4.965
527 1 9.93 6.62 6.62
528 1 11.584999999999999 8.275 8.275
529 1 9.93 6.62 9.93
530 1 11.584999999999999 8.275 11.584999999999999
531 1 9.93 6.62 13.24
532 1 11.584999999999999 8.275 14.895
533 1 9.93 6.62 16.55
534 1 11.584999999999999 8.275 18.205000000000002
535 1 9.93 6.62 19.86
536 1 11.584999999999999 8.275 21.515
537 1 9.93 6.62 23.17
538 1 11.584999999999999 8.275 24.825000000000003
539 1 9.93 6.62 26.48
540 1 11.584999999999999 8.275 28.135
541 1 9.93 9.93 0.0
542 1 11.584999999999999 11.584999999999999 1.655
543 1 9.93 9.93 3.31
544 1 11.584999999999999 11.584999999999999 4.965
545 1 9.93 9.93 6.62
546 1 11.584999999999999 11.584999999999999 8.275
547 1 9.93 9.93 9.93
548 1 11.584999999999999 11.584999999999999 11.584999999999999
549 1 9.93 9.93 13.24
550 1 11.584999999999999 11.584999999999999 14.895
551 1 9.93 9.93 16.55
552 1 11.584999999999999 11.584999999999999 18.205000000000002
553 1 9.93 9.93 19.86
554 1 11.584999999999999 11.584999999999999 21.515
555 1 9.93 9.93 23.17
556 1 11.584999999999999 11.584999999999999 24.825000000000003
557 1 9.93 9.93 26.48
558 1 11.584999999999999 11.584999999999999 28.135
559 1 9.93 13.24 0.0
560 1 11.584999999999999 14.895 1.655
561 1 9.93 13.24 3.31
562 1 11.584999999999999 14.895 4.965
563 1 9.93 13.24 6.62
564 1 11.584999999999999 14.895 8.275
565 1 9.93 13.24 9.93
566 1 11.584999999999999 14.895 11.584999999999999
567 1 9.93 13.24 13.24
568 1 11.584999999999999 14.895 14.895
569 1 9.93 13.24 16.55
570 1 11.584999999999999 14.895 18.205000000000002
571 1 9.93 13.24 19.86
572 1 11.584999999999999 14.895 21.515
573 1 9.93 13.24 23.17
574 1 11.584999999999999 14.895 24.825000000000003
575 1 9.93 13.24 26.48
576 1 11.584999999999999 14.895 28.135
577 1 9.93 16.55 0.0
578 1 11.584999999999999 18.205000000000002 1.655
579 1 9.93 16.55 3.31
580 1 11.584999999999999 18.205000000000002 4.965
581 1 9.93 16.55 6.62
582 1 11.584999999999999 18.205000000000002 8.275
583 1 9.93 16.55 9.93
584 1 11.584999999999999 18.205000000000002 11.584999999999999
585 1 9.93 16.55 13.24
586 1 11.584999999999999 18.205000000000002 14.895
587 1 9.93 16.55 16.55
588 1 11.584999999999999 18.205000000000002 18.205000000000002
589 1 9.93 16.55 19.86
590 1 11.584999999999999 18.205000000000002 21.515
591 1 9.93 16.55 23.17
592 1 11.584999999999999 18.205000000000002 24.825000000000003
593 1 9.93 16.55 26.48
594 1 11.584999999999999 18.205000000000002 28.135
595 1 9.93 19.86 0.0
596 1 11.584999999999999 21.515 1.655
597 1 9.93 19.86 3.31
598 1 11.584999999999999 21.515 4.965
599 1 9.93 19.86 6.62
600 1 11.584999999999999 21.515 8.275
601 1 9.93 19.86 9.93
602 1 11.584999999999999 21.515 11.584999999999999
603 1 9.93 19.86 13.24
604 1 11.584999999999999 21.515 14.895
605 1 9.93 19.86 16.55
606 1 11.584999999999999 21.515 18.205000000000002
607 1 9.93 19.86 19.86
608 1 11.584999999999999 21.515 21.515
609 1 9.93 19.86 23.17
610 1 11.584999999999999 21.515 24.825000000000003
611 1 9.93 19.86 26.48
612 1 11.584999999999999 21.515 28.135
613 1 9.93 23.17 0.0
614 1 11.584999999999999 24.825000000000003 1.655
615 1 9.93 23.17 3.31
616 1 11.584999999999999 24.825000000000003 4.965
617 1 9.93 23.17 6.62
618 1 11.584999999999999 24.825000000000003 8.275
619 1 9.93 23.17 9.93
620 1 11.584999999999999 24.825000000000003 11.584999999999999
621 1 9.93 23.17 13.24
622 1 11.584999999999999 24.825000000000003 14.895
623 1 9.93 23.17 16.55
624 1 11.584999999999999 24.825000000000003 18.205000000000002
625 1 9.93 23.17 19.86
626 1 11.584999999999999 24.825000000000003 21.515
627 1 9.93 23.17 23.17
628 1 11.584999999999999 24.825000000000003 24.825000000000003
629 1 9.93 23.17 26.48
630 1 11.584999999999999 24.825000000000003 28.135
631 1 9.93 26.48 0.0
632 1 11.584999999999999 28.135 1.655
633 1 9.93 26.48 3.31
634 1 11.584999999999999 28.135 4.965
635 1 9.93 26.48 6.62
636 1 11.584999999999999 28.135 8.275
637 1 9.93 26.48 9.93
638 1 11.584999999999999 28.135 11.584999999999999
639 1 9.93 26.48 13.24
640 1 11.584999999999999 28.135 14.895
641 1 9.93 26.48 16.55
642 1 11.584999999999999 28.135 18.205000000000002
643 1 9.93 26.48 19.86
644 1 11.584999999999999 28.135 21.515
645 1 9.93 26.48 23.17
646 1 11.584999999999999 28.135 24.825000000000003
647 1 9.93 26.48 26.48
648 1 11.584999999999999 28.135 28.135
649 1 13.24 0.0 0.0
650 1 14.895 1.655 1.655
651 1 13.24 0.0 3.31
652 1 14.895 1.655 4.965
653 1 13.24 0.0 6.62
654 1 14.895 1.655 8.275
655 1 13.24 0.0 9.93
656 1 14.895 1.655 11.584999999999999
657 1 13.24 0.0 13.24
658 1 14.895 1.655 14.895
659 1 13.24 0.0 16.55
660 1 14.895 1.655 18.205000000000002
661 1 13.24 0.0 19.86
662 1 14.895 1.655 21.515
663 1 13.24 0.0 23.17
664 1 14.895 1.655 24.825000000000003
665 1 13.24 0.0 26.48
666 1 14.895 1.655 28.135
667 1 13.24 3.31 0.0
668 1 14.895 4.965 1.655
669 1 13.24 3.31 3.31
670 1 14.895 4.965 4.965
671 1 13.24 3.31 6.62
672 1 14.895 4.965 8.275
673 1 13.24 3.31 9.93
674 1 14.895 4.965 11.584999999999999
675 1 13.24 3.31 13.24
676 1 14.895 4.965 14.895
677 1 13.24 3.31 16.55
678 1 14.895 4.965 18.205000000000002
679 1 13.24 3.31 19.86
680 1 14.895 4.965 21.515
681 1 13.24 3.31 23.17
682 1 14.895 4.965 24.825000000000003
683 1 13.24 3.31 26.48
684 1 14.895 4.965 28.135
685 1 13.24 6.62 0.0
686 1 14.895 8.275 1.655
687 1 13.24 6.62 3.31
688 1 14.895 8.275 4.965
689 1 13.24 6.62 6.62
690 1 14.895 8.275 8.275
691 1 13.24 6.62 9.93
692 1 14.895 8.275 11.584999999999999
693 1 13.24 6.62 13.24
694 1 14.895 8.275 14.895
695 1 13.24 6.62 16.55
696 1 14.895 8.275 18.205000000000002
697 1 13.24 6.62 19.86
698 1 14.895 8.275 21.515
699 1 13.24 6.62 23.17
700 1 14.895 8.275 24.825000000000003
701 1 13.24 6.62 26.48
702 1 14.895 8.275 28.135
703 1 13.24 9.93 0.0
704 1 14.895 11.584999999999999 1.655
705 1 13.24 9.93 3.31
706 1 14.895 11.584999999999999 4.965
707 1 13.24 9.93 6.62
708 1 14.895 11.584999999999999 8.275
709 1 13.24 9.93 9.93
710 1 14.895 11.584999999999999 11.584999999999999
711 1 13.24 9.93 13.24
712 1 14.895 11.584999999999999 14.895
713 1 13.24 9.93 16.55
714 1 14.895 11.584999999999999 18.205000000000002
715 1 13.24 9.93 19.86
716 1 14.895 11.584999999999999 21.515
717 1 13.24 9.93 23.17
718 1 14.895 11.584999999999999 24.825000000000003
719 1 13.24 9.93 26.48
720 1 14.895 11.584999999999999 28.135
721 1 13.24 13.24 0.0
722 1 14.895 14.895 1.655
723 1 13.24 13.24 3.31
724 1 14.895 14.895 4.965
725 1 13.24 13.24 6.62
726 1 14.895 14.895 8.275
727 1 13.24 13.24 9.93
728 1 14.895 14.895 11.584999999999999
729 1 13.24 13.24 13.24
730 1 14.895 14.895 14.895
731 1 13.24 13.24 16.55
732 1 14.895 14.895 18.205000000000002
733 1 13.24 13.24 19.86
734 1 14.895 14.895 21.515
735 1 13.24 13.24 23.17
736 1 14.895 14.895 24.825000000000003
737 1 13.24 13.24 26.48
738 1 14.895 14.895 28.135
739 1 13.24 16.55 0.0
740 1 14.895 18.205000000000002 1.655
741 1 13.24 16.55 3.31
742 1 14.895 18.205000000000002 4.965
743 1 13.24 16.55 6.62
744 1 14.895 18.205000000000002 8.275
745 1 13.24 16.55 9.93
746 1 14.895 18.205000000000002 11.584999999999999
747 1 13.24 16.55 13.24
748 1 14.895 18.205000000000002 14.895
749 1 13.24 16.55 16.55
750 1 14.895 18.205000000000002 18.205000000000002
751 1 13.24 16.55 19.86
752 1 14.895 18.205000000000002 21.515
753 1 13.24 16.55 23.17
754 1 14.895 18.205000000000002 24.825000000000003
755 1 13.24 16.55 26.48
756 1 14.895 18.205000000000002 28.135
757 1 13.24 19.86 0.0
758 1 14.895 21.515 1.655
759 1 13.24 19.86 3.31
760 1 14.895 21.515 4.965
761 1 13.24 19.86 6.62
762 1 14.895 21.515 8.275
763 1 13.24 19.86 9.93
764 1 14.895 21.515 11.584999999999999
765 1 13.24 19.86 13.24
766 1 14.895 21.515 14.895
767 1 13.24 19.86 16.55
768 1 14.895 21.515 18.205000000000002
769 1 13.24 19.86 19.86
770 1 14.895 21.515 21.515
771 1 13.24 19.86 23.17
772 1 14.895 21.515 24.825000000000003
773 1 13.24 19.86 26.48
774 1 14.895 21.515 28.135
775 1 13.24 23.17 0.0
776 1 14.895 24.825000000000003 1.655
777 1 13.24 23.17 3.31
778 1 14.895 24.825000000000003 4.965
779 1 13.24 23.17 6.62
780 1 14.895 24.825000000000003 8.275
781 1 13.24 23.17 9.93
782 1 14.895 24.825000000000003 11.584999999999999
783 1 13.24 23.17 13.24
784 1 14.895 24.825000000000003 14.895
785 1 13.24 23.17 16.55
786 1 14.895 24.825000000000003 18.205000000000002
787 1 13.24 23.17 19.86
788 1 14.895 24.825000000000003 21.515
789 1 13.24 23.17 23.17
790 1 14.895 24.825000000000003 24.825000000000003
791 1 13.24 23.17 26.48
792 1 14.895 24.825000000000003 28.135
793 1 13.24 26.48 0.0
794 1 14.895 28.135 1.655
795 1 13.24 26.48 3.31
796 1 14.895 28.135 4.965
797 1 13.24 26.48 6.62
798 1 14.895 28.135 8.275
799 1 13.24 26.48 9.93
800 1 14.895 28.135 11.584999999999999
801 1 13.24 26.48 13.24
802 1 14.895 28.135 14.895
803 1 13.24 26.48 16.55
804 1 14.895 28.135 18.205000000000002
805 1 13.24 26.48 19.86
806 1 14.895 28.135 21.515
807 1 13.24 26.48 23.17
808 1 14.895 28.135 24.825000000000003
809 1 13.24 26.48 26.48
810 1 14.895 28.135 28.135
811 1 16.55 0.0 0.0
812 1 18.205000000000002 1.655 1.655
813 1 16.55 0.0 3.31
814 1 18.205000000000002 1.655 4.965
815 1 16.55 0.0 6.62
816 1 18.205000000000002 1.655 8.275
817 1 16.55 0.0 9.93
818 1 18.205000000000002 1.655 11.584999999999999
819 1 16.55 0.0 13.24
820 1 18.205000000000002 1.655 14.895
821 1 16.55 0.0 16.55
822 1 18.205000000000002 1.655 18.205000000000002
823 1 16.55 0.0 19.86
824 1 18.205000000000002 1.655 21.515
825 1 16.55 0.0 23.17
826 1 18.205000000000002 1.655 24.825000000000003
827 1 16.55 0.0 26.48
828 1 18.205000000000002 1.655 28.135
829 1 16.55 3.31 0.0
830 1 18.205000000000002 4.965 1.655
831 1 16.55 3.31 3.31
832 1 18.205000000000002 4.965 4.965
833 1 16.55 3.31 6.62
834 1 18.205000000000002 4.965 8.275
835 1 16.55 3.31 9.93
836 1 18.205000000000002 4.965 11.584999999999999
837 1 16.55 3.31 13.24
838 1 18.205000000000002 4.965 14.895
839 1 16.55 3.31 16.55
840 1 18.205000000000002 4.965 18.205000000000002
841 1 16.55 3.31 19.86
842 1 18.205000000000002 4.965 21.515
843 1 16.55 3.31 23.17
844 1 18.205000000000002 4.965 24.825000000000003
845 1 16.55 3.31 26.48
846 1 18.205000000000002 4.965 28.135
847 1 16.55 6.62 0.0
848 1 18.205000000000002 8.275 1.655
849 1 16.55 6.62 3.31
850 1 18.205000000000002 8.275 4.965
851 1 16.55 6.62 6.62
852 1 18.205000000000002 8.275 8.275
853 1 16.55 6.62 9.93
854 1 18.205000000000002 8.275 11.584999999999999
855 1 16.55 6.62 13.24
856 1 18.205000000000002 8.275 14.895
857 1 16.55 6.62 16.55
858 1 18.205000000000002 8.275 18.205000000000002
859 1 16.55 6.62 19.86
860 1 18.205000000000002 8.275 21.515
861 1 16.55 6.62 23.17
862 1 18.205000000000002 8.275 24.825000000000003
863 1 16.55 6.62 26.48
864 1 18.205000000000002 8.275 28.135
865 1 16.55 9.93 0.0
866 1 18.205000000000002 11.584999999999999 1.655
867 1 16.55 9.93 3.31
868 1 18.205000000000002 11.584999999999999 4.965
869 1 16.55 9.93 6.62
870 1 18.205000000000002 11.584999999999999 8.275
871 1 16.55 9.93 9.93
872 1 18.205000000000002 11.584999999999999 11.584999999999999
873 1 16.55 9.93 13.24
874 1 18.205000000000002 11.584999999999999 14.895
875 1 16.55 9.93 16.55
876 1 18.205000000000002 11.584999999999999 18.205000000000002
877 1 16.55 9.93 19.86
878 1 18.205000000000002 11.584999999999999 21.515
879 1 16.55 9.93 23.17
880 1 18.205000000000002 11.584999999999999 24.825000000000003
881 1 16.55 9.93 26.48
882 1 18.205000000000002 11.584999999999999 28.135
883 1 16.55 13.24 0.0
884 1 18.205000000000002 14.895 1.655
885 1 16.55 13.24 3.31
886 1 18.205000000000002 14.895 4.965
887 1 16.55 13.24 6.62
888 1 18.205000000000002 14.895 8.275
889 1 16.55 13.24 9.93
890 1 18.205000000000002 14.895 11.584999999999999
891 1 16.55 13.24 13.24
892 1 18.205000000000002 14.895 14.895
893 1 16.55 13.24 16.55
894 1 18.205000000000002 14.895 18.205000000000002
895 1 16.55 13.24 19.86
896 1 18.205000000000002 14.895 21.515
897 1 16.55 13.24 23.17
898 1 18.205000000000002 14.895 24.825000000000003
899 1 16.55 13.24 26.48
900 1 18.205000000000002 14.895 28.135
901 1 16.55 16.55 0.0
902 1 18.205000000000002 18.205000000000002 1.655
903 1 16.55 16.55 3.31
904 1 18.205000000000002 18.205000000000002 4.965
905 1 16.55 16.55 6.62
906 1 18.205000000000002 18.205000000000002 8.275
907 1 16.55 16.55 9.93
908 1 18.205000000000002 18.205000000000002 11.584999999999999
909 1 16.55 16.55 13.24
910 1 18.205000000000002 18.205000000000002 14.895
911 1 16.55 16.55 16.55
912 1 18.205000000000002 18.205000000000002 18.205000000000002
913 1 16.55 16.55 19.86
914 1 18.205000000000002 18.205000000000002 21.515
915 1 16.55 16.55 23.17
916 1 18.205000000000002 18.205000000000002 24.825000000000003
917 1 16.55 16.55 26.48
918 1 18.205000000000002 18.205000000000002 28.135
919 1 16.55 19.86 0.0
920 1 18.205000000000002 21.515 1.655
921 1 16.55 19.86 3.31
922 1 18.205000000000002 21.515 4.965
923 1 16.55 19.86 6.62
924 1 18.205000000000002 21.515 8.275
925 1 16.55 19.86 9.93
926 1 18.205000000000002 21.515 11.584999999999999
927 1 16.55 19.86 13.24
928 1 18.205000000000002 21.515 14.895
929 1 16.55 19.86 16.55
930 1 18.205000000000002 21.515 18.205000000000002
931 1 16.55 19.86 19.86
932 1 18.205000000000002 21.515 21.515
933 1 16.55 19.86 23.17
934 1 18.205000000000002 21.515 24.825000000000003
935 1 16.55 19.86 26.48
936 1 18.205000000000002 21.515 28.135
937 1 16.55 23.17 0.0
938 1 18.205000000000002 24.825000000000003 1.655
939 1 16.55 23.17 3.31
940 1 18.205000000000002 24.825000000000003 4.965
941 1 16.55 23.17 6.62
942 1 18.205000000000002 24.825000000000003 8.275
943 1 16.55 23.17 9.93
944 1 18.205000000000002 24.825000000000003 11.584999999999999
945 1 16.55 23.17 13.24
946 1 18.205000000000002 24.825000000000003 14.895
947 1 16.55 23.17 16.55
948 1 18.205000000000002 24.825000000000003 18.205000000000002
949 1 16.55 23.17 19.86
950 1 18.205000000000002 24.825000000000003 21.515
951 1 16.55 23.17 23.17
952 1 18.205000000000002 24.825000000000003 24.825000000000003
953 1 16.55 23.17 26.48
954 1 18.205000000000002 24.825000000000003 28.135
955 1 16.55 26.48 0.0
956 1 18.205000000000002 28.135 1.655
957 1 16.55 26.48 3.31
958 1 18.205000000000002 28.135 4.965
959 1 16.55 26.48 6.62
960 1 18.205000000000002 28.135 8.275
961 1 16.55 26.48 9.93
962 1 18.205000000000002 28.135 11.584999999999999
963 1 16.55 26.48 13.24
964 1 18.205000000000002 28.135 14.895
965 1 16.55 26.48 16.55
966 1 18.205000000000002 28.135 18.205000000000002
967 1 16.55 26.48 19.86
968 1 18.205000000000002 28.135 21.515
969 1 16.55 26.48 23.17
970 1 18.205000000000002 28.135 24.825000000000003
971 1 16.55 26.48 26.48
972 1 18.205000000000002 28.135 28.135
973 1 19.86 0.0 0.0
974 1 21.515 1.655 1.655
975 1 19.86 0.0 3.31
976 1 21.515 1.655 4.965
977 1 19.86 0.0 6.62
978 1 21.515 1.655 8.275
979 1 19.86 0.0 9.93
980 1 21.515 1.655 11.584999999999999
981 1 19.86 0.0 13.24
982 1 21.515 1.655 14.895
983 1 19.86 0.0 16.55
984 1 21.515 1.655 18.205000000000002
985 1 19.86 0.0 19.86
986 1 21.515 1.655 21.515
987 1 19.86 0.0 23.17
988 1 21.515 1.655 24.825000000000003
989 1 19.86 0.0 26.48
990 1 21.515 1.655 28.135
991 1 19.86 3.31 0.0
992 1 21.515 4.965 1.655
993 1 19.86 3.31 3.31
994 1 21.515 4.965 4.965
995 1 19.86 3.31 6.62
996 1 21.515 4.965 8.275
997 1 19.86 3.31 9.93
998 1 21.515 4.965 11.584999999999999
999 1 19.86 3.31 13.24
1000 1 21.515 4.965 14.895
1001 1 19.86 3.31 16.55
1002 1 21.515 4.965 18.205000000000002
1003 1 19.86 3.31 19.86
1004 1 21.515 4.965 21.515
1005 1 19.86 3.31 23.17