Start File for LAMMPS
7776 atoms
1 atom types

0.0 72.828 xlo xhi
0.0 72.828 ylo yhi
0.0 24.276000000000003 zlo zhi

Masses

1 26.9815 

Atoms

1 1 0.0 0.0 0.0
2 1 2.023 2.023 0.0
3 1 2.023 0.0 2.023
4 1 0.0 2.023 2.023
5 1 0.0 0.0 4.046
6 1 2.023 2.023 4.046
7 1 2.023 0.0 6.069000000000001
8 1 0.0 2.023 6.069000000000001
9 1 0.0 0.0 8.092
10 1 2.023 2.023 8.092
11 1 2.023 0.0 10.115
12 1 0.0 2.023 10.115
13 1 0.0 0.0 12.138000000000002
14 1 2.023 2.023 12.138000000000002
15 1 2.023 0.0 14.161000000000001
16 1 0.0 2.023 14.161000000000001
17 1 0.0 0.0 16.184
18 1 2.023 2.023 16.184
19 1 2.023 0.0 18.207
20 1 0.0 2.023 18.207
21 1 0.0 0.0 20.23
22 1 2.023 2.023 20.23
23 1 2.023 0.0 22.253
24 1 0.0 2.023 22.253
25 1 0.0 4.046 0.0
26 1 2.023 6.069000000000001 0.0
27 1 2.023 4.046 2.023
28 1 0.0 6.069000000000001 2.023
29 1 0.0 4.046 4.046
30 1 2.023 6.069000000000001 4.046
31 1 2.023 4.046 6.069000000000001
32 1 0.0 6.069000000000001 6.069000000000001
33 1 0.0 4.046 8.092
34 1 2.023 6.069000000000001 8.092
35 1 2.023 4.046 10.115
36 1 0.0 6.069000000000001 10.115
37 1 0.0 4.046 12.138000000000002
38 1 2.023 6.069000000000001 12.138000000000002
39 1 2.023 4.046 14.161000000000001
40 1 0.0 6.069000000000001 14.161000000000001
41 1 0.0 4.046 16.184
42 1 2.023 6.069000000000001 16.184
43 1 2.023 4.046 18.207
44 1 0.0 6.069000000000001 18.207
45 1 0.0 4.046 20.23
46 1 2.023 6.069000000000001 20.23
47 1 2.023 4.046 22.253
48 1 0.0 6.069000000000001 22.253
49 1 0.0 8.092 0.0
50 1 2.023 10.115 0.0
51 1 2.023 8.092 2.023
52 1 0.0 10.115 2.023
53 1 0.0 8.092 4.046
54 1 2.023 10.115 4.046
55 1 2.023 8.092 6.069000000000001
56 1 0.0 10.115 6.069000000000001
57 1 0.0 8.092 8.092
58 1 2.023 10.115 8.092
59 1 2.023 8.092 10.115
60 1 0.0 10.115 10.115
61 1 0.0 8.092 12.138000000000002
62 1 2.023 10.115 12.138000000000002
63 1 2.023 8.092 14.161000000000001
64 1 0.0 10.115 14.161000000000001
65 1 0.0 8.092 16.184
66 1 2.023 10.115 16.184
67 1 2.023 8.092 18.207
68 1 0.0 10.115 18.207
69 1 0.0 8.092 20.23
70 1 2.023 10.115 20.23
71 1 2.023 8.092 22.253
72 1 0.0 10.115 22.253
73 1 0.0 12.138000000000002 0.0
74 1 2.023 14.161000000000001 0.0
75 1 2.023 12.138000000000002 2.023
76 1 0.0 14.161000000000001 2.023
77 1 0.0 12.138000000000002 4.046
78 1 2.023 14.161000000000001 4.046
79 1 2.023 12.138000000000002 6.069000000000001
80 1 0.0 14.161000000000001 6.069000000000001
81 1 0.0 12.138000000000002 8.092
82 1 2.023 14.161000000000001 8.092
83 1 2.023 12.138000000000002 10.115
84 1 0.0 14.161000000000001 10.115
85 1 0.0 12.138000000000002 12.138000000000002
86 1 2.023 14.161000000000001 12.138000000000002
87 1 2.023 12.138000000000002 14.161000000000001
88 1 0.0 14.161000000000001 14.161000000000001
89 1 0.0 12.138000000000002 16.184
90 1 2.023 14.161000000000001 16.184
91 1 2.023 12.138000000000002 18.207
92 1 0.0 14.161000000000001 18.207
93 1 0.0 12.138000000000002 20.23
94 1 2.023 14.161000000000001 20.23
95 1 2.023 12.138000000000002 22.253
96 1 0.0 14.161000000000001 22.253
97 1 0.0 16.184 0.0
98 1 2.023 18.207 0.0
99 1 2.023 16.184 2.023
100 1 0.0 18.207 2.023
101 1 0.0 16.184 4.046
102 1 2.023 18.207 4.046
103 1 2.023 16.184 6.069000000000001
104 1 0.0 18.207 6.069000000000001
105 1 0.0 16.184 8.092
106 1 2.023 18.207 8.092
107 1 2.023 16.184 10.115
108 1 0.0 18.207 10.115
109 1 0.0 16.184 12.138000000000002
110 1 2.023 18.207 12.138000000000002
111 1 2.023 16.184 14.161000000000001
112 1 0.0 18.207 14.161000000000001
113 1 0.0 16.184 16.184
114 1 2.023 18.207 16.184
115 1 2.023 16.184 18.207
116 1 0.0 18.207 18.207
117 1 0.0 16.184 20.23
118 1 2.023 18.207 20.23
119 1 2.023 16.184 22.253
120 1 0.0 18.207 22.253
121 1 0.0 20.23 0.0
122 1 2.023 22.253 0.0
123 1 2.023 20.23 2.023
124 1 0.0 22.253 2.023
125 1 0.0 20.23 4.046
126 1 2.023 22.253 4.046
127 1 2.023 20.23 6.069000000000001
128 1 0.0 22.253 6.069000000000001
129 1 0.0 20.23 8.092
130 1 2.023 22.253 8.092
131 1 2.023 20.23 10.115
132 1 0.0 22.253 10.115
133 1 0.0 20.23 12.138000000000002
134 1 2.023 22.253 12.138000000000002
135 1 2.023 20.23 14.161000000000001
136 1 0.0 22.253 14.161000000000001
137 1 0.0 20.23 16.184
138 1 2.023 22.253 16.184
139 1 2.023 20.23 18.207
140 1 0.0 22.253 18.207
141 1 0.0 20.23 20.23
142 1 2.023 22.253 20.23
143 1 2.023 20.23 22.253
144 1 0.0 22.253 22.253
145 1 0.0 24.276000000000003 0.0
146 1 2.023 26.299000000000003 0.0
147 1 2.023 24.276000000000003 2.023
148 1 0.0 26.299000000000003 2.023
149 1 0.0 24.276000000000003 4.046
150 1 2.023 26.299000000000003 4.046
151 1 2.023 24.276000000000003 6.069000000000001
152 1 0.0 26.299000000000003 6.069000000000001
153 1 0.0 24.276000000000003 8.092
154 1 2.023 26.299000000000003 8.092
155 1 2.023 24.276000000000003 10.115
156 1 0.0 26.299000000000003 10.115
157 1 0.0 24.276000000000003 12.138000000000002
158 1 2.023 26.299000000000003 12.138000000000002
159 1 2.023 24.276000000000003 14.161000000000001
160 1 0.0 26.299000000000003 14.161000000000001
161 1 0.0 24.276000000000003 16.184
162 1 2.023 26.299000000000003 16.184
163 1 2.023 24.276000000000003 18.207
164 1 0.0 26.299000000000003 18.207
165 1 0.0 24.276000000000003 20.23
166 1 2.023 26.299000000000003 20.23
167 1 2.023 24.276000000000003 22.253
168 1 0.0 26.299000000000003 22.253
169 1 0.0 28.322000000000003 0.0
170 1 2.023 30.345000000000002 0.0
171 1 2.023 28.322000000000003 2.023
172 1 0.0 30.345000000000002 2.023
173 1 0.0 28.322000000000003 4.046
174 1 2.023 30.345000000000002 4.046
175 1 2.023 28.322000000000003 6.069000000000001
176 1 0.0 30.345000000000002 6.069000000000001
177 1 0.0 28.322000000000003 8.092
178 1 2.023 30.345000000000002 8.092
179 1 2.023 28.322000000000003 10.115
180 1 0.0 30.345000000000002 10.115
181 1 0.0 28.322000000000003 12.138000000000002
182 1 2.023 30.345000000000002 12.138000000000002
183 1 2.023 28.322000000000003 14.161000000000001
184 1 0.0 30.345000000000002 14.161000000000001
185 1 0.0 28.322000000000003 16.184
186 1 2.023 30.345000000000002 16.184
187 1 2.023 28.322000000000003 18.207
188 1 0.0 30.345000000000002 18.207
189 1 0.0 28.322000000000003 20.23
190 1 2.023 30.345000000000002 20.23
191 1 2.023 28.322000000000003 22.253
192 1 0.0 30.345000000000002 22.253
193 1 0.0 32.368 0.0
194 1 2.023 34.391000000000005 0.0
195 1 2.023 32.368 2.023
196 1 0.0 34.391000000000005 2.023
197 1 0.0 32.368 4.046
198 1 2.023 34.391000000000005 4.046
199 1 2.023 32.368 6.069000000000001
200 1 0.0 34.391000000000005 6.069000000000001
201 1 0.0 32.368 8.092
202 1 2.023 34.391000000000005 8.092
203 1 2.023 32.368 10.115
204 1 0.0 34.391000000000005 10.115
205 1 0.0 32.368 12.138000000000002
206 1 2.023 34.391000000000005 12.138000000000002
207 1 2.023 32.368 14.161000000000001
208 1 0.0 34.391000000000005 14.161000000000001
209 1 0.0 32.368 16.184
210 1 2.023 34.391000000000005 16.184
211 1 2.023 32.368 18.207
212 1 0.0 34.391000000000005 18.207
213 1 0.0 32.368 20.23
214 1 2.023 34.391000000000005 20.23
215 1 2.023 32.368 22.253
216 1 0.0 34.391000000000005 22.253
217 1 0.0 36.414 0.0
218 1 2.023 38.437000000000005 0.0
219 1 2.023 36.414 2.023
220 1 0.0 38.437000000000005 2.023
221 1 0.0 36.414 4.046
222 1 2.023 38.437000000000005 4.046
223 1 2.023 36.414 6.069000000000001
224 1 0.0 38.437000000000005 6.069000000000001
225 1 0.0 36.414 8.092
226 1 2.023 38.437000000000005 8.092
227 1 2.023 36.414 10.115
228 1 0.0 38.437000000000005 10.115
229 1 0.0 36.414 12.138000000000002
230 1 2.023 38.437000000000005 12.138000000000002
231 1 2.023 36.414 14.161000000000001
232 1 0.0 38.437000000000005 14.161000000000001
233 1 0.0 36.414 16.184
234 1 2.023 38.437000000000005 16.184
235 1 2.023 36.414 18.207
236 1 0.0 38.437000000000005 18.207
237 1 0.0 36.414 20.23
238 1 2.023 38.437000000000005 20.23
239 1 2.023 36.414 22.253
240 1 0.0 38.437000000000005 22.253
241 1 0.0 40.46 0.0
242 1 2.023 42.483000000000004 0.0
243 1 2.023 40.46 2.023
244 1 0.0 42.483000000000004 2.023
245 1 0.0 40.46 4.046
246 1 2.023 42.483000000000004 4.046
247 1 2.023 40.46 6.069000000000001
248 1 0.0 42.483000000000004 6.069000000000001
249 1 0.0 40.46 8.092
250 1 2.023 42.483000000000004 8.092
251 1 2.023 40.46 10.115
252 1 0.0 42.483000000000004 10.115
253 1 0.0 40.46 12.138000000000002
254 1 2.023 42.483000000000004 12.138000000000002
255 1 2.023 40.46 14.161000000000001
256 1 0.0 42.483000000000004 14.161000000000001
257 1 0.0 40.46 16.184
258 1 2.023 42.483000000000004 16.184
259 1 2.023 40.46 18.207
260 1 0.0 42.483000000000004 18.207
261 1 0.0 40.46 20.23
262 1 2.023 42.483000000000004 20.23
263 1 2.023 40.46 22.253
264 1 0.0 42.483000000000004 22.253
265 1 0.0 44.506 0.0
266 1 2.023 46.529 0.0
267 1 2.023 44.506 2.023
268 1 0.0 46.529 2.023
269 1 0.0 44.506 4.046
270 1 2.023 46.529 4.046
271 1 2.023 44.506 6.069000000000001
272 1 0.0 46.529 6.069000000000001
273 1 0.0 44.506 8.092
274 1 2.023 46.529 8.092
275 1 2.023 44.506 10.115
276 1 0.0 46.529 10.115
277 1 0.0 44.506 12.138000000000002
278 1 2.023 46.529 12.138000000000002
279 1 2.023 44.506 14.161000000000001
280 1 0.0 46.529 14.161000000000001
281 1 0.0 44.506 16.184
282 1 2.023 46.529 16.184
283 1 2.023 44.506 18.207
284 1 0.0 46.529 18.207
285 1 0.0 44.506 20.23
286 1 2.023 46.529 20.23
287 1 2.023 44.506 22.253
288 1 0.0 46.529 22.253
289 1 0.0 48.55200000000001 0.0
290 1 2.023 50.57500000000001 0.0
291 1 2.023 48.55200000000001 2.023
292 1 0.0 50.57500000000001 2.023
293 1 0.0 48.55200000000001 4.046
294 1 2.023 50.57500000000001 4.046
295 1 2.023 48.55200000000001 6.069000000000001
296 1 0.0 50.57500000000001 6.069000000000001
297 1 0.0 48.55200000000001 8.092
298 1 2.023 50.57500000000001 8.092
299 1 2.023 48.55200000000001 10.115
300 1 0.0 50.57500000000001 10.115
301 1 0.0 48.55200000000001 12.138000000000002
302 1 2.023 50.57500000000001 12.138000000000002
303 1 2.023 48.55200000000001 14.161000000000001
304 1 0.0 50.57500000000001 14.161000000000001
305 1 0.0 48.55200000000001 16.184
306 1 2.023 50.57500000000001 16.184
307 1 2.023 48.55200000000001 18.207
308 1 0.0 50.57500000000001 18.207
309 1 0.0 48.55200000000001 20.23
310 1 2.023 50.57500000000001 20.23
311 1 2.023 48.55200000000001 22.253
312 1 0.0 50.57500000000001 22.253
313 1 0.0 52.598000000000006 0.0
314 1 2.023 54.62100000000001 0.0
315 1 2.023 52.598000000000006 2.023
316 1 0.0 54.62100000000001 2.023
317 1 0.0 52.598000000000006 4.046
318 1 2.023 54.62100000000001 4.046
319 1 2.023 52.598000000000006 6.069000000000001
320 1 0.0 54.62100000000001 6.069000000000001
321 1 0.0 52.598000000000006 8.092
322 1 2.023 54.62100000000001 8.092
323 1 2.023 52.598000000000006 10.115
324 1 0.0 54.62100000000001 10.115
325 1 0.0 52.598000000000006 12.138000000000002
326 1 2.023 54.62100000000001 12.138000000000002
327 1 2.023 52.598000000000006 14.161000000000001
328 1 0.0 54.62100000000001 14.161000000000001
329 1 0.0 52.598000000000006 16.184
330 1 2.023 54.62100000000001 16.184
331 1 2.023 52.598000000000006 18.207
332 1 0.0 54.62100000000001 18.207
333 1 0.0 52.598000000000006 20.23
334 1 2.023 54.62100000000001 20.23
335 1 2.023 52.598000000000006 22.253
336 1 0.0 54.62100000000001 22.253
337 1 0.0 56.644000000000005 0.0
338 1 2.023 58.66700000000001 0.0
339 1 2.023 56.644000000000005 2.023
340 1 0.0 58.66700000000001 2.023
341 1 0.0 56.644000000000005 4.046
342 1 2.023 58.66700000000001 4.046
343 1 2.023 56.644000000000005 6.069000000000001
344 1 0.0 58.66700000000001 6.069000000000001
345 1 0.0 56.644000000000005 8.092
346 1 2.023 58.66700000000001 8.092
347 1 2.023 56.644000000000005 10.115
348 1 0.0 58.66700000000001 10.115
349 1 0.0 56.644000000000005 12.138000000000002
350 1 2.023 58.66700000000001 12.138000000000002
351 1 2.023 56.644000000000005 14.161000000000001
352 1 0.0 58.66700000000001 14.161000000000001
353 1 0.0 56.644000000000005 16.184
354 1 2.023 58.66700000000001 16.184
355 1 2.023 56.644000000000005 18.207
356 1 0.0 58.66700000000001 18.207
357 1 0.0 56.644000000000005 20.23
358 1 2.023 58.66700000000001 20.23
359 1 2.023 56.644000000000005 22.253
360 1 0.0 58.66700000000001 22.253
361 1 0.0 60.690000000000005 0.0
362 1 2.023 62.71300000000001 0.0
363 1 2.023 60.690000000000005 2.023
364 1 0.0 62.71300000000001 2.023
365 1 0.0 60.690000000000005 4.046
366 1 2.023 62.71300000000001 4.046
367 1 2.023 60.690000000000005 6.069000000000001
368 1 0.0 62.71300000000001 6.069000000000001
369 1 0.0 60.690000000000005 8.092
370 1 2.023 62.71300000000001 8.092
371 1 2.023 60.690000000000005 10.115
372 1 0.0 62.71300000000001 10.115
373 1 0.0 60.690000000000005 12.138000000000002
374 1 2.023 62.71300000000001 12.138000000000002
375 1 2.023 60.690000000000005 14.161000000000001
376 1 0.0 62.71300000000001 14.161000000000001
377 1 0.0 60.690000000000005 16.184
378 1 2.023 62.71300000000001 16.184
379 1 2.023 60.690000000000005 18.207
380 1 0.0 62.71300000000001 18.207
381 1 0.0 60.690000000000005 20.23
382 1 2.023 62.71300000000001 20.23
383 1 2.023 60.690000000000005 22.253
384 1 0.0 62.71300000000001 22.253
385 1 0.0 64.736 0.0
386 1 2.023 66.759 0.0
387 1 2.023 64.736 2.023
388 1 0.0 66.759 2.023
389 1 0.0 64.736 4.046
390 1 2.023 66.759 4.046
391 1 2.023 64.736 6.069000000000001
392 1 0.0 66.759 6.069000000000001
393 1 0.0 64.736 8.092
394 1 2.023 66.759 8.092
395 1 2.023 64.736 10.115
396 1 0.0 66.759 10.115
397 1 0.0 64.736 12.138000000000002
398 1 2.023 66.759 12.138000000000002
399 1 2.023 64.736 14.161000000000001
400 1 0.0 66.759 14.161000000000001
401 1 0.0 64.736 16.184
402 1 2.023 66.759 16.184
403 1 2.023 64.736 18.207
404 1 0.0 66.759 18.207
405 1 0.0 64.736 20.23
406 1 2.023 66.759 20.23
407 1 2.023 64.736 22.253
408 1 0.0 66.759 22.253
409 1 0.0 68.78200000000001 0.0
410 1 2.023 70.805 0.0
411 1 2.023 68.78200000000001 2.023
412 1 0.0 70.805 2.023
413 1 0.0 68.78200000000001 4.046
414 1 2.023 70.805 4.046
415 1 2.023 68.78200000000001 6.069000000000001
416 1 0.0 70.805 6.069000000000001
417 1 0.0 68.78200000000001 8.092
418 1 2.023 70.805 8.092
419 1 2.023 68.78200000000001 10.115
420 1 0.0 70.805 10.115
421 1 0.0 68.78200000000001 12.138000000000002
422 1 2.023 70.805 12.138000000000002
423 1 2.023 68.78200000000001 14.161000000000001
424 1 0.0 70.805 14.161000000000001
425 1 0.0 68.78200000000001 16.184
426 1 2.023 70.805 16.184
427 1 2.023 68.78200000000001 18.207
428 1 0.0 70.805 18.207
429 1 0.0 68.78200000000001 20.23
430 1 2.023 70.805 20.23
431 1 2.023 68.78200000000001 22.253
432 1 0.0 70.805 22.253
433 1 4.046 0.0 0.0
434 1 6.069000000000001 2.023 0.0
435 1 6.069000000000001 0.0 2.023
436 1 4.046 2.023 2.023
437 1 4.046 0.0 4.046
438 1 6.069000000000001 2.023 4.046
439 1 6.069000000000001 0.0 6.069000000000001
440 1 4.046 2.023 6.069000000000001
441 1 4.046 0.0 8.092
442 1 6.069000000000001 2.023 8.092
443 1 6.069000000000001 0.0 10.115
444 1 4.046 2.023 10.115
445 1 4.046 0.0 12.138000000000002
446 1 6.069000000000001 2.023 12.138000000000002
447 1 6.069000000000001 0.0 14.161000000000001
448 1 4.046 2.023 14.161000000000001
449 1 4.046 0.0 16.184
450 1 6.069000000000001 2.023 16.184
451 1 6.069000000000001 0.0 18.207
452 1 4.046 2.023 18.207
453 1 4.046 0.0 20.23
454 1 6.069000000000001 2.023 20.23
455 1 6.069000000000001 0.0 22.253
456 1 4.046 2.023 22.253
457 1 4.046 4.046 0.0
458 1 6.069000000000001 6.069000000000001 0.0
459 1 6.069000000000001 4.046 2.023
460 1 4.046 6.069000000000001 2.023
461 1 4.046 4.046 4.046
462 1 6.069000000000001 6.069000000000001 4.046
463 1 6.069000000000001 4.046 6.069000000000001
464 1 4.046 6.069000000000001 6.069000000000001
465 1 4.046 4.046 8.092
466 1 6.069000000000001 6.069000000000001 8.092
467 1 6.069000000000001 4.046 10.115
468 1 4.046 6.069000000000001 10.115
469 1 4.046 4.046 12.138000000000002
470 1 6.069000000000001 6.069000000000001 12.138000000000002
471 1 6.069000000000001 4.046 14.161000000000001
472 1 4.046 6.069000000000001 14.161000000000001
473 1 4.046 4.046 16.184
474 1 6.069000000000001 6.069000000000001 16.184
475 1 6.069000000000001 4.046 18.207
476 1 4.046 6.069000000000001 18.207
477 1 4.046 4.046 20.23
478 1 6.069000000000001 6.069000000000001 20.23
479 1 6.069000000000001 4.046 22.253
480 1 4.046 6.069000000000001 22.253
481 1 4.046 8.092 0.0
482 1 6.069000000000001 10.115 0.0
483 1 6.069000000000001 8.092 2.023
484 1 4.046 10.115 2.023
485 1 4.046 8.092 4.046
486 1 6.069000000000001 10.115 4.046
487 1 6.069000000000001 8.092 6.069000000000001
488 1 4.046 10.115 6.069000000000001
489 1 4.046 8.092 8.092
490 1 6.069000000000001 10.115 8.092
491 1 6.069000000000001 8.092 10.115
492 1 4.046 10.115 10.115
493 1 4.046 8.092 12.138000000000002
494 1 6.069000000000001 10.115 12.138000000000002
495 1 6.069000000000001 8.092 14.161000000000001
496 1 4.046 10.115 14.161000000000001
497 1 4.046 8.092 16.184
498 1 6.069000000000001 10.115 16.184
499 1 6.069000000000001 8.092 18.207
500 1 4.046 10.115 18.207
501 1 4.046 8.092 20.23
502 1 6.069000000000001 10.115 20.23
503 1 6.069000000000001 8.092 22.253
504 1 4.046 10.115 22.253
505 1 4.046 12.138000000000002 0.0
506 1 6.069000000000001 14.161000000000001 0.0
507 1 6.069000000000001 12.138000000000002 2.023
508 1 4.046 14.161000000000001 2.023
509 1 4.046 12.138000000000002 4.046
510 1 6.069000000000001 14.161000000000001 4.046
511 1 6.069000000000001 12.138000000000002 6.069000000000001
512 1 4.046 14.161000000000001 6.069000000000001
513 1 4.046 12.138000000000002 8.092
514 1 6.069000000000001 14.161000000000001 8.092
515 1 6.069000000000001 12.138000000000002 10.115
516 1 4.046 14.161000000000001 10.115
517 1 4.046 12.138000000000002 12.138000000000002
518 1 6.069000000000001 14.161000000000001 12.138000000000002
519 1 6.069000000000001 12.138000000000002 14.161000000000001
520 1 4.046 14.161000000000001 14.161000000000001
521 1 4.046 12.138000000000002 16.184
522 1 6.069000000000001 14.161000000000001 16.184
523 1 6.069000000000001 12.138000000000002 18.207
524 1 4.046 14.161000000000001 18.207
525 1 4.046 12.138000000000002 20.23
526 1 6.069000000000001 14.161000000000001 20.23
527 1 6.069000000000001 12.138000000000002 22.253
528 1 4.046 14.161000000000001 22.253
529 1 4.046 16.184 0.0
530 1 6.069000000000001 18.207 0.0
531 1 6.069000000000001 16.184 2.023
532 1 4.046 18.207 2.023
533 1 4.046 16.184 4.046
534 1 6.069000000000001 18.207 4.046
535 1 6.069000000000001 16.184 6.069000000000001
536 1 4.046 18.207 6.069000000000001
537 1 4.046 16.184 8.092
538 1 6.069000000000001 18.207 8.092
539 1 6.069000000000001 16.184 10.115
540 1 4.046 18.207 10.115
541 1 4.046 16.184 12.138000000000002
542 1 6.069000000000001 18.207 12.138000000000002
543 1 6.069000000000001 16.184 14.161000000000001
544 1 4.046 18.207 14.161000000000001
545 1 4.046 16.184 16.184
546 1 6.069000000000001 18.207 16.184
547 1 6.069000000000001 16.184 18.207
548 1 4.046 18.207 18.207
549 1 4.046 16.184 20.23
550 1 6.069000000000001 18.207 20.23
551 1 6.069000000000001 16.184 22.253
552 1 4.046 18.207 22.253
553 1 4.046 20.23 0.0
554 1 6.069000000000001 22.253 0.0
555 1 6.069000000000001 20.23 2.023
556 1 4.046 22.253 2.023
557 1 4.046 20.23 4.046
558 1 6.069000000000001 22.253 4.046
559 1 6.069000000000001 20.23 6.069000000000001
560 1 4.046 22.253 6.069000000000001
561 1 4.046 20.23 8.092
562 1 6.069000000000001 22.253 8.092
563 1 6.069000000000001 20.23 10.115
564 1 4.046 22.253 10.115
565 1 4.046 20.23 12.138000000000002
566 1 6.069000000000001 22.253 12.138000000000002
567 1 6.069000000000001 20.23 14.161000000000001
568 1 4.046 22.253 14.161000000000001
569 1 4.046 20.23 16.184
570 1 6.069000000000001 22.253 16.184
571 1 6.069000000000001 20.23 18.207
572 1 4.046 22.253 18.207
573 1 4.046 20.23 20.23
574 1 6.069000000000001 22.253 20.23
575 1 6.069000000000001 20.23 22.253
576 1 4.046 22.253 22.253
577 1 4.046 24.276000000000003 0.0
578 1 6.069000000000001 26.299000000000003 0.0
579 1 6.069000000000001 24.276000000000003 2.023
580 1 4.046 26.299000000000003 2.023
581 1 4.046 24.276000000000003 4.046
582 1 6.069000000000001 26.299000000000003 4.046
583 1 6.069000000000001 24.276000000000003 6.069000000000001
584 1 4.046 26.299000000000003 6.069000000000001
585 1 4.046 24.276000000000003 8.092
586 1 6.069000000000001 26.299000000000003 8.092
587 1 6.069000000000001 24.276000000000003 10.115
588 1 4.046 26.299000000000003 10.115
589 1 4.046 24.276000000000003 12.138000000000002
590 1 6.069000000000001 26.299000000000003 12.138000000000002
591 1 6.069000000000001 24.276000000000003 14.161000000000001
592 1 4.046 26.299000000000003 14.161000000000001
593 1 4.046 24.276000000000003 16.184
594 1 6.069000000000001 26.299000000000003 16.184
595 1 6.069000000000001 24.276000000000003 18.207
596 1 4.046 26.299000000000003 18.207
597 1 4.046 24.276000000000003 20.23
598 1 6.069000000000001 26.299000000000003 20.23
599 1 6.069000000000001 24.276000000000003 22.253
600 1 4.046 26.299000000000003 22.253
601 1 4.046 28.322000000000003 0.0
602 1 6.069000000000001 30.345000000000002 0.0
603 1 6.069000000000001 28.322000000000003 2.023
604 1 4.046 30.345000000000002 2.023
605 1 4.046 28.322000000000003 4.046
606 1 6.069000000000001 30.345000000000002 4.046
607 1 6.069000000000001 28.322000000000003 6.069000000000001
608 1 4.046 30.345000000000002 6.069000000000001
609 1 4.046 28.322000000000003 8.092
610 1 6.069000000000001 30.345000000000002 8.092
611 1 6.069000000000001 28.322000000000003 10.115
612 1 4.046 30.345000000000002 10.115
613 1 4.046 28.322000000000003 12.138000000000002
614 1 6.069000000000001 30.345000000000002 12.138000000000002
615 1 6.069000000000001 28.322000000000003 14.161000000000001
616 1 4.046 30.345000000000002 14.161000000000001
617 1 4.046 28.322000000000003 16.184
618 1 6.069000000000001 30.345000000000002 16.184
619 1 6.069000000000001 28.322000000000003 18.207
620 1 4.046 30.345000000000002 18.207
621 1 4.046 28.322000000000003 20.23
622 1 6.069000000000001 30.345000000000002 20.23
623 1 6.069000000000001 28.322000000000003 22.253
624 1 4.046 30.345000000000002 22.253
625 1 4.046 32.368 0.0
626 1 6.069000000000001 34.391000000000005 0.0
627 1 6.069000000000001 32.368 2.023
628 1 4.046 34.391000000000005 2.023
629 1 4.046 32.368 4.046
630 1 6.069000000000001 34.391000000000005 4.046
631 1 6.069000000000001 32.368 6.069000000000001
632 1 4.046 34.391000000000005 6.069000000000001
633 1 4.046 32.368 8.092
634 1 6.069000000000001 34.391000000000005 8.092
635 1 6.069000000000001 32.368 10.115
636 1 4.046 34.391000000000005 10.115
637 1 4.046 32.368 12.138000000000002
638 1 6.069000000000001 34.391000000000005 12.138000000000002
639 1 6.069000000000001 32.368 14.161000000000001
640 1 4.046 34.391000000000005 14.161000000000001
641 1 4.046 32.368 16.184
642 1 6.069000000000001 34.391000000000005 16.184
643 1 6.069000000000001 32.368 18.207
644 1 4.046 34.391000000000005 18.207
645 1 4.046 32.368 20.23
646 1 6.069000000000001 34.391000000000005 20.23
647 1 6.069000000000001 32.368 22.253
648 1 4.046 34.391000000000005 22.253
649 1 4.046 36.414 0.0
650 1 6.069000000000001 38.437000000000005 0.0
651 1 6.069000000000001 36.414 2.023
652 1 4.046 38.437000000000005 2.023
653 1 4.046 36.414 4.046
654 1 6.069000000000001 38.437000000000005 4.046
655 1 6.069000000000001 36.414 6.069000000000001
656 1 4.046 38.437000000000005 6.069000000000001
657 1 4.046 36.414 8.092
658 1 6.069000000000001 38.437000000000005 8.092
659 1 6.069000000000001 36.414 10.115
660 1 4.046 38.437000000000005 10.115
661 1 4.046 36.414 12.138000000000002
662 1 6.069000000000001 38.437000000000005 12.138000000000002
663 1 6.069000000000001 36.414 14.161000000000001
664 1 4.046 38.437000000000005 14.161000000000001
665 1 4.046 36.414 16.184
666 1 6.069000000000001 38.437000000000005 16.184
667 1 6.069000000000001 36.414 18.207
668 1 4.046 38.437000000000005 18.207
669 1 4.046 36.414 20.23
670 1 6.069000000000001 38.437000000000005 20.23
671 1 6.069000000000001 36.414 22.253
672 1 4.046 38.437000000000005 22.253
673 1 4.046 40.46 0.0
674 1 6.069000000000001 42.483000000000004 0.0
675 1 6.069000000000001 40.46 2.023
676 1 4.046 42.483000000000004 2.023
677 1 4.046 40.46 4.046
678 1 6.069000000000001 42.483000000000004 4.046
679 1 6.069000000000001 40.46 6.069000000000001
680 1 4.046 42.483000000000004 6.069000000000001
681 1 4.046 40.46 8.092
682 1 6.069000000000001 42.483000000000004 8.092
683 1 6.069000000000001 40.46 10.115
684 1 4.046 42.483000000000004 10.115
685 1 4.046 40.46 12.138000000000002
686 1 6.069000000000001 42.483000000000004 12.138000000000002
687 1 6.069000000000001 40.46 14.161000000000001
688 1 4.046 42.483000000000004 14.161000000000001
689 1 4.046 40.46 16.184
690 1 6.069000000000001 42.483000000000004 16.184
691 1 6.069000000000001 40.46 18.207
692 1 4.046 42.483000000000004 18.207
693 1 4.046 40.46 20.23
694 1 6.069000000000001 42.483000000000004 20.23
695 1 6.069000000000001 40.46 22.253
696 1 4.046 42.483000000000004 22.253
697 1 4.046 44.506 0.0
698 1 6.069000000000001 46.529 0.0
699 1 6.069000000000001 44.506 2.023
700 1 4.046 46.529 2.023
701 1 4.046 44.506 4.046
702 1 6.069000000000001 46.529 4.046
703 1 6.069000000000001 44.506 6.069000000000001
704 1 4.046 46.529 6.069000000000001
705 1 4.046 44.506 8.092
706 1 6.069000000000001 46.529 8.092
707 1 6.069000000000001 44.506 10.115
708 1 4.046 46.529 10.115
709 1 4.046 44.506 12.138000000000002
710 1 6.069000000000001 46.529 12.138000000000002
711 1 6.069000000000001 44.506 14.161000000000001
712 1 4.046 46.529 14.161000000000001
713 1 4.046 44.506 16.184
714 1 6.069000000000001 46.529 16.184
715 1 6.069000000000001 44.506 18.207
716 1 4.046 46.529 18.207
717 1 4.046 44.506 20.23
718 1 6.069000000000001 46.529 20.23
719 1 6.069000000000001 44.506 22.253
720 1 4.046 46.529 22.253
721 1 4.046 48.55200000000001 0.0
722 1 6.069000000000001 50.57500000000001 0.0
723 1 6.069000000000001 48.55200000000001 2.023
724 1 4.046 50.57500000000001 2.023
725 1 4.046 48.55200000000001 4.046
726 1 6.069000000000001 50.57500000000001 4.046
727 1 6.069000000000001 48.55200000000001 6.069000000000001
728 1 4.046 50.57500000000001 6.069000000000001
729 1 4.046 48.55200000000001 8.092
730 1 6.069000000000001 50.57500000000001 8.092
731 1 6.069000000000001 48.55200000000001 10.115
732 1 4.046 50.57500000000001 10.115
733 1 4.046 48.55200000000001 12.138000000000002
734 1 6.069000000000001 50.57500000000001 12.138000000000002
735 1 6.069000000000001 48.55200000000001 14.161000000000001
736 1 4.046 50.57500000000001 14.161000000000001
737 1 4.046 48.55200000000001 16.184
738 1 6.069000000000001 50.57500000000001 16.184
739 1 6.069000000000001 48.55200000000001 18.207
740 1 4.046 50.57500000000001 18.207
741 1 4.046 48.55200000000001 20.23
742 1 6.069000000000001 50.57500000000001 20.23
743 1 6.069000000000001 48.55200000000001 22.253
744 1 4.046 50.57500000000001 22.253
745 1 4.046 52.598000000000006 0.0
746 1 6.069000000000001 54.62100000000001 0.0
747 1 6.069000000000001 52.598000000000006 2.023
748 1 4.046 54.62100000000001 2.023
749 1 4.046 52.598000000000006 4.046
750 1 6.069000000000001 54.62100000000001 4.046
751 1 6.069000000000001 52.598000000000006 6.069000000000001
752 1 4.046 54.62100000000001 6.069000000000001
753 1 4.046 52.598000000000006 8.092
754 1 6.069000000000001 54.62100000000001 8.092
755 1 6.069000000000001 52.598000000000006 10.115
756 1 4.046 54.62100000000001 10.115
757 1 4.046 52.598000000000006 12.138000000000002
758 1 6.069000000000001 54.62100000000001 12.138000000000002
759 1 6.069000000000001 52.598000000000006 14.161000000000001
760 1 4.046 54.62100000000001 14.161000000000001
761 1 4.046 52.598000000000006 16.184
762 1 6.069000000000001 54.62100000000001 16.184
763 1 6.069000000000001 52.598000000000006 18.207
764 1 4.046 54.62100000000001 18.207
765 1 4.046 52.598000000000006 20.23
766 1 6.069000000000001 54.62100000000001 20.23
767 1 6.069000000000001 52.598000000000006 22.253
768 1 4.046 54.62100000000001 22.253
769 1 4.046 56.644000000000005 0.0
770 1 6.069000000000001 58.66700000000001 0.0
771 1 6.069000000000001 56.644000000000005 2.023
772 1 4.046 58.66700000000001 2.023
773 1 4.046 56.644000000000005 4.046
774 1 6.069000000000001 58.66700000000001 4.046
775 1 6.069000000000001 56.644000000000005 6.069000000000001
776 1 4.046 58.66700000000001 6.069000000000001
777 1 4.046 56.644000000000005 8.092
778 1 6.069000000000001 58.66700000000001 8.092
779 1 6.069000000000001 56.644000000000005 10.115
780 1 4.046 58.66700000000001 10.115
781 1 4.046 56.644000000000005 12.138000000000002
782 1 6.069000000000001 58.66700000000001 12.138000000000002
783 1 6.069000000000001 56.644000000000005 14.161000000000001
784 1 4.046 58.66700000000001 14.161000000000001
785 1 4.046 56.644000000000005 16.184
786 1 6.069000000000001 58.66700000000001 16.184
787 1 6.069000000000001 56.644000000000005 18.207
788 1 4.046 58.66700000000001 18.207
789 1 4.046 56.644000000000005 20.23
790 1 6.069000000000001 58.66700000000001 20.23
791 1 6.069000000000001 56.644000000000005 22.253
792 1 4.046 58.66700000000001 22.253
793 1 4.046 60.690000000000005 0.0
794 1 6.069000000000001 62.71300000000001 0.0
795 1 6.069000000000001 60.690000000000005 2.023
796 1 4.046 62.71300000000001 2.023
797 1 4.046 60.690000000000005 4.046
798 1 6.069000000000001 62.71300000000001 4.046
799 1 6.069000000000001 60.690000000000005 6.069000000000001
800 1 4.046 62.71300000000001 6.069000000000001
801 1 4.046 60.690000000000005 8.092
802 1 6.069000000000001 62.71300000000001 8.092
803 1 6.069000000000001 60.690000000000005 10.115
804 1 4.046 62.71300000000001 10.115
805 1 4.046 60.690000000000005 12.138000000000002
806 1 6.069000000000001 62.71300000000001 12.138000000000002
807 1 6.069000000000001 60.690000000000005 14.161000000000001
808 1 4.046 62.71300000000001 14.161000000000001
809 1 4.046 60.690000000000005 16.184
810 1 6.069000000000001 62.71300000000001 16.184
811 1 6.069000000000001 60.690000000000005 18.207
812 1 4.046 62.71300000000001 18.207
813 1 4.046 60.690000000000005 20.23
814 1 6.069000000000001 62.71300000000001 20.23
815 1 6.069000000000001 60.690000000000005 22.253