Start File for LAMMPS
432 atoms
1 atom types

0.0 17.700000000000003 xlo xhi
0.0 17.700000000000003 ylo yhi
0.0 28.116 zlo zhi

Masses

1 47.867 

Atoms

1 1 0.0 0.0 0.0
2 1 1.9666666666666668 0.9833333333333334 2.343
3 1 0.0 0.0 4.686
4 1 1.9666666666666668 0.9833333333333334 7.029
5 1 0.0 0.0 9.372
6 1 1.9666666666666668 0.9833333333333334 11.715
7 1 0.0 0.0 14.058
8 1 1.9666666666666668 0.9833333333333334 16.401
9 1 0.0 0.0 18.744
10 1 1.9666666666666668 0.9833333333333334 21.087
11 1 0.0 0.0 23.43
12 1 1.9666666666666668 0.9833333333333334 25.773
13 1 0.0 2.5375900000000002 0.0
14 1 1.9666666666666668 3.5209233333333336 2.343
15 1 0.0 2.5375900000000002 4.686
16 1 1.9666666666666668 3.5209233333333336 7.029
17 1 0.0 2.5375900000000002 9.372
18 1 1.9666666666666668 3.5209233333333336 11.715
19 1 0.0 2.5375900000000002 14.058
20 1 1.9666666666666668 3.5209233333333336 16.401
21 1 0.0 2.5375900000000002 18.744
22 1 1.9666666666666668 3.5209233333333336 21.087
23 1 0.0 2.5375900000000002 23.43
24 1 1.9666666666666668 3.5209233333333336 25.773
25 1 0.0 5.0751800000000005 0.0
26 1 1.9666666666666668 6.058513333333334 2.343
27 1 0.0 5.0751800000000005 4.686
28 1 1.9666666666666668 6.058513333333334 7.029
29 1 0.0 5.0751800000000005 9.372
30 1 1.9666666666666668 6.058513333333334 11.715
31 1 0.0 5.0751800000000005 14.058
32 1 1.9666666666666668 6.058513333333334 16.401
33 1 0.0 5.0751800000000005 18.744
34 1 1.9666666666666668 6.058513333333334 21.087
35 1 0.0 5.0751800000000005 23.43
36 1 1.9666666666666668 6.058513333333334 25.773
37 1 0.0 7.612770000000001 0.0
38 1 1.9666666666666668 8.596103333333335 2.343
39 1 0.0 7.612770000000001 4.686
40 1 1.9666666666666668 8.596103333333335 7.029
41 1 0.0 7.612770000000001 9.372
42 1 1.9666666666666668 8.596103333333335 11.715
43 1 0.0 7.612770000000001 14.058
44 1 1.9666666666666668 8.596103333333335 16.401
45 1 0.0 7.612770000000001 18.744
46 1 1.9666666666666668 8.596103333333335 21.087
47 1 0.0 7.612770000000001 23.43
48 1 1.9666666666666668 8.596103333333335 25.773
49 1 0.0 10.150360000000001 0.0
50 1 1.9666666666666668 11.133693333333333 2.343
51 1 0.0 10.150360000000001 4.686
52 1 1.9666666666666668 11.133693333333333 7.029
53 1 0.0 10.150360000000001 9.372
54 1 1.9666666666666668 11.133693333333333 11.715
55 1 0.0 10.150360000000001 14.058
56 1 1.9666666666666668 11.133693333333333 16.401
57 1 0.0 10.150360000000001 18.744
58 1 1.9666666666666668 11.133693333333333 21.087
59 1 0.0 10.150360000000001 23.43
60 1 1.9666666666666668 11.133693333333333 25.773
61 1 0.0 12.68795 0.0
62 1 1.9666666666666668 13.671283333333335 2.343
63 1 0.0 12.68795 4.686
64 1 1.9666666666666668 13.671283333333335 7.029
65 1 0.0 12.68795 9.372
66 1 1.9666666666666668 13.671283333333335 11.715
67 1 0.0 12.68795 14.058
68 1 1.9666666666666668 13.671283333333335 16.401
69 1 0.0 12.68795 18.744
70 1 1.9666666666666668 13.671283333333335 21.087
71 1 0.0 12.68795 23.43
72 1 1.9666666666666668 13.671283333333335 25.773
73 1 2.95 0.0 0.0
74 1 4.916666666666667 0.9833333333333334 2.343
75 1 2.95 0.0 4.686
76 1 4.916666666666667 0.9833333333333334 7.029
77 1 2.95 0.0 9.372
78 1 4.916666666666667 0.9833333333333334 11.715
79 1 2.95 0.0 14.058
80 1 4.916666666666667 0.9833333333333334 16.401
81 1 2.95 0.0 18.744
82 1 4.916666666666667 0.9833333333333334 21.087
83 1 2.95 0.0 23.43
84 1 4.916666666666667 0.9833333333333334 25.773
85 1 2.95 2.5375900000000002 0.0
86 1 4.916666666666667 3.5209233333333336 2.343
87 1 2.95 2.5375900000000002 4.686
88 1 4.916666666666667 3.5209233333333336 7.029
89 1 2.95 2.5375900000000002 9.372
90 1 4.916666666666667 3.5209233333333336 11.715
91 1 2.95 2.5375900000000002 14.058
92 1 4.916666666666667 3.5209233333333336 16.401
93 1 2.95 2.5375900000000002 18.744
94 1 4.916666666666667 3.5209233333333336 21.087
95 1 2.95 2.5375900000000002 23.43
96 1 4.916666666666667 3.5209233333333336 25.773
97 1 2.95 5.0751800000000005 0.0
98 1 4.916666666666667 6.058513333333334 2.343
99 1 2.95 5.0751800000000005 4.686
100 1 4.916666666666667 6.058513333333334 7.029
101 1 2.95 5.0751800000000005 9.372
102 1 4.916666666666667 6.058513333333334 11.715
103 1 2.95 5.0751800000000005 14.058
104 1 4.916666666666667 6.058513333333334 16.401
105 1 2.95 5.0751800000000005 18.744
106 1 4.916666666666667 6.058513333333334 21.087
107 1 2.95 5.0751800000000005 23.43
108 1 4.916666666666667 6.058513333333334 25.773
109 1 2.95 7.612770000000001 0.0
110 1 4.916666666666667 8.596103333333335 2.343
111 1 2.95 7.612770000000001 4.686
112 1 4.916666666666667 8.596103333333335 7.029
113 1 2.95 7.612770000000001 9.372
114 1 4.916666666666667 8.596103333333335 11.715
115 1 2.95 7.612770000000001 14.058
116 1 4.916666666666667 8.596103333333335 16.401
117 1 2.95 7.612770000000001 18.744
118 1 4.916666666666667 8.596103333333335 21.087
119 1 2.95 7.612770000000001 23.43
120 1 4.916666666666667 8.596103333333335 25.773
121 1 2.95 10.150360000000001 0.0
122 1 4.916666666666667 11.133693333333333 2.343
123 1 2.95 10.150360000000001 4.686
124 1 4.916666666666667 11.133693333333333 7.029
125 1 2.95 10.150360000000001 9.372
126 1 4.916666666666667 11.133693333333333 11.715
127 1 2.95 10.150360000000001 14.058
128 1 4.916666666666667 11.133693333333333 16.401
129 1 2.95 10.150360000000001 18.744
130 1 4.916666666666667 11.133693333333333 21.087
131 1 2.95 10.150360000000001 23.43
132 1 4.916666666666667 11.133693333333333 25.773
133 1 2.95 12.68795 0.0
134 1 4.916666666666667 13.671283333333335 2.343
135 1 2.95 12.68795 4.686
136 1 4.916666666666667 13.671283333333335 7.029
137 1 2.95 12.68795 9.372
138 1 4.916666666666667 13.671283333333335 11.715
139 1 2.95 12.68795 14.058
140 1 4.916666666666667 13.671283333333335 16.401
141 1 2.95 12.68795 18.744
142 1 4.916666666666667 13.671283333333335 21.087
143 1 2.95 12.68795 23.43
144 1 4.916666666666667 13.671283333333335 25.773
145 1 5.9 0.0 0.0
146 1 7.866666666666667 0.9833333333333334 2.343
147 1 5.9 0.0 4.686
148 1 7.866666666666667 0.9833333333333334 7.029
149 1 5.9 0.0 9.372
150 1 7.866666666666667 0.9833333333333334 11.715
151 1 5.9 0.0 14.058
152 1 7.866666666666667 0.9833333333333334 16.401
153 1 5.9 0.0 18.744
154 1 7.866666666666667 0.9833333333333334 21.087
155 1 5.9 0.0 23.43
156 1 7.866666666666667 0.9833333333333334 25.773
157 1 5.9 2.5375900000000002 0.0
158 1 7.866666666666667 3.5209233333333336 2.343
159 1 5.9 2.5375900000000002 4.686
160 1 7.866666666666667 3.5209233333333336 7.029
161 1 5.9 2.5375900000000002 9.372
162 1 7.866666666666667 3.5209233333333336 11.715
163 1 5.9 2.5375900000000002 14.058
164 1 7.866666666666667 3.5209233333333336 16.401
165 1 5.9 2.5375900000000002 18.744
166 1 7.866666666666667 3.5209233333333336 21.087
167 1 5.9 2.5375900000000002 23.43
168 1 7.866666666666667 3.5209233333333336 25.773
169 1 5.9 5.0751800000000005 0.0
170 1 7.866666666666667 6.058513333333334 2.343
171 1 5.9 5.0751800000000005 4.686
172 1 7.866666666666667 6.058513333333334 7.029
173 1 5.9 5.0751800000000005 9.372
174 1 7.866666666666667 6.058513333333334 11.715
175 1 5.9 5.0751800000000005 14.058
176 1 7.866666666666667 6.058513333333334 16.401
177 1 5.9 5.0751800000000005 18.744
178 1 7.866666666666667 6.058513333333334 21.087
179 1 5.9 5.0751800000000005 23.43
180 1 7.866666666666667 6.058513333333334 25.773
181 1 5.9 7.612770000000001 0.0
182 1 7.866666666666667 8.596103333333335 2.343
183 1 5.9 7.612770000000001 4.686
184 1 7.866666666666667 8.596103333333335 7.029
185 1 5.9 7.612770000000001 9.372
186 1 7.866666666666667 8.596103333333335 11.715
187 1 5.9 7.612770000000001 14.058
188 1 7.866666666666667 8.596103333333335 16.401
189 1 5.9 7.612770000000001 18.744
190 1 7.866666666666667 8.596103333333335 21.087
191 1 5.9 7.612770000000001 23.43
192 1 7.866666666666667 8.596103333333335 25.773
193 1 5.9 10.150360000000001 0.0
194 1 7.866666666666667 11.133693333333333 2.343
195 1 5.9 10.150360000000001 4.686
196 1 7.866666666666667 11.133693333333333 7.029
197 1 5.9 10.150360000000001 9.372
198 1 7.866666666666667 11.133693333333333 11.715
199 1 5.9 10.150360000000001 14.058
200 1 7.866666666666667 11.133693333333333 16.401
201 1 5.9 10.150360000000001 18.744
202 1 7.866666666666667 11.133693333333333 21.087
203 1 5.9 10.150360000000001 23.43
204 1 7.866666666666667 11.133693333333333 25.773
205 1 5.9 12.68795 0.0
206 1 7.866666666666667 13.671283333333335 2.343
207 1 5.9 12.68795 4.686
208 1 7.866666666666667 13.671283333333335 7.029
209 1 5.9 12.68795 9.372
210 1 7.866666666666667 13.671283333333335 11.715
211 1 5.9 12.68795 14.058
212 1 7.866666666666667 13.671283333333335 16.401
213 1 5.9 12.68795 18.744
214 1 7.866666666666667 13.671283333333335 21.087
215 1 5.9 12.68795 23.43
216 1 7.866666666666667 13.671283333333335 25.773
217 1 8.850000000000001 0.0 0.0
218 1 10.816666666666668 0.9833333333333334 2.343
219 1 8.850000000000001 0.0 4.686
220 1 10.816666666666668 0.9833333333333334 7.029
221 1 8.850000000000001 0.0 9.372
222 1 10.816666666666668 0.9833333333333334 11.715
223 1 8.850000000000001 0.0 14.058
224 1 10.816666666666668 0.9833333333333334 16.401
225 1 8.850000000000001 0.0 18.744
226 1 10.816666666666668 0.9833333333333334 21.087
227 1 8.850000000000001 0.0 23.43
228 1 10.816666666666668 0.9833333333333334 25.773
229 1 8.850000000000001 2.5375900000000002 0.0
230 1 10.816666666666668 3.5209233333333336 2.343
231 1 8.850000000000001 2.5375900000000002 4.686
232 1 10.816666666666668 3.5209233333333336 7.029
233 1 8.850000000000001 2.5375900000000002 9.372
234 1 10.816666666666668 3.5209233333333336 11.715
235 1 8.850000000000001 2.5375900000000002 14.058
236 1 10.816666666666668 3.5209233333333336 16.401
237 1 8.850000000000001 2.5375900000000002 18.744
238 1 10.816666666666668 3.5209233333333336 21.087
239 1 8.850000000000001 2.5375900000000002 23.43
240 1 10.816666666666668 3.5209233333333336 25.773
241 1 8.850000000000001 5.0751800000000005 0.0
242 1 10.816666666666668 6.058513333333334 2.343
243 1 8.850000000000001 5.0751800000000005 4.686
244 1 10.816666666666668 6.058513333333334 7.029
245 1 8.850000000000001 5.0751800000000005 9.372
246 1 10.816666666666668 6.058513333333334 11.715
247 1 8.850000000000001 5.0751800000000005 14.058
248 1 10.816666666666668 6.058513333333334 16.401
249 1 8.850000000000001 5.0751800000000005 18.744
250 1 10.816666666666668 6.058513333333334 21.087
251 1 8.850000000000001 5.0751800000000005 23.43
252 1 10.816666666666668 6.058513333333334 25.773
253 1 8.850000000000001 7.612770000000001 0.0
254 1 10.816666666666668 8.596103333333335 2.343
255 1 8.850000000000001 7.612770000000001 4.686
256 1 10.816666666666668 8.596103333333335 7.029
257 1 8.850000000000001 7.612770000000001 9.372
258 1 10.816666666666668 8.596103333333335 11.715
259 1 8.850000000000001 7.612770000000001 14.058
260 1 10.816666666666668 8.596103333333335 16.401
261 1 8.850000000000001 7.612770000000001 18.744
262 1 10.816666666666668 8.596103333333335 21.087
263 1 8.850000000000001 7.612770000000001 23.43
264 1 10.816666666666668 8.596103333333335 25.773
265 1 8.850000000000001 10.150360000000001 0.0
266 1 10.816666666666668 11.133693333333333 2.343
267 1 8.850000000000001 10.150360000000001 4.686
268 1 10.816666666666668 11.133693333333333 7.029
269 1 8.850000000000001 10.150360000000001 9.372
270 1 10.816666666666668 11.133693333333333 11.715
271 1 8.850000000000001 10.150360000000001 14.058
272 1 10.816666666666668 11.133693333333333 16.401
273 1 8.850000000000001 10.150360000000001 18.744
274 1 10.816666666666668 11.133693333333333 21.087
275 1 8.850000000000001 10.150360000000001 23.43
276 1 10.816666666666668 11.133693333333333 25.773
277 1 8.850000000000001 12.68795 0.0
278 1 10.816666666666668 13.671283333333335 2.343
279 1 8.850000000000001 12.68795 4.686
280 1 10.816666666666668 13.671283333333335 7.029
281 1 8.850000000000001 12.68795 9.372
282 1 10.816666666666668 13.671283333333335 11.715
283 1 8.850000000000001 12.68795 14.058
284 1 10.816666666666668 13.671283333333335 16.401
285 1 8.850000000000001 12.68795 18.744
286 1 10.816666666666668 13.671283333333335 21.087
287 1 8.850000000000001 12.68795 23.43
288 1 10.816666666666668 13.671283333333335 25.773
289 1 11.8 0.0 0.0
290 1 13.766666666666667 0.9833333333333334 2.343
291 1 11.8 0.0 4.686
292 1 13.766666666666667 0.9833333333333334 7.029
293 1 11.8 0.0 9.372
294 1 13.766666666666667 0.9833333333333334 11.715
295 1 11.8 0.0 14.058
296 1 13.766666666666667 0.9833333333333334 16.401
297 1 11.8 0.0 18.744
298 1 13.766666666666667 0.9833333333333334 21.087
299 1 11.8 0.0 23.43
300 1 13.766666666666667 0.9833333333333334 25.773
301 1 11.8 2.5375900000000002 0.0
302 1 13.766666666666667 3.5209233333333336 2.343
303 1 11.8 2.5375900000000002 4.686
304 1 13.766666666666667 3.5209233333333336 7.029
305 1 11.8 2.5375900000000002 9.372
306 1 13.766666666666667 3.5209233333333336 11.715
307 1 11.8 2.5375900000000002 14.058
308 1 13.766666666666667 3.5209233333333336 16.401
309 1 11.8 2.5375900000000002 18.744
310 1 13.766666666666667 3.5209233333333336 21.087
311 1 11.8 2.5375900000000002 23.43
312 1 13.766666666666667 3.5209233333333336 25.773
313 1 11.8 5.0751800000000005 0.0
314 1 13.766666666666667 6.058513333333334 2.343
315 1 11.8 5.0751800000000005 4.686
316 1 13.766666666666667 6.058513333333334 7.029
317 1 11.8 5.0751800000000005 9.372
318 1 13.766666666666667 6.058513333333334 11.715
319 1 11.8 5.0751800000000005 14.058
320 1 13.766666666666667 6.058513333333334 16.401
321 1 11.8 5.0751800000000005 18.744
322 1 13.766666666666667 6.058513333333334 21.087
323 1 11.8 5.0751800000000005 23.43
324 1 13.766666666666667 6.058513333333334 25.773
325 1 11.8 7.612770000000001 0.0
326 1 13.766666666666667 8.596103333333335 2.343
327 1 11.8 7.612770000000001 4.686
328 1 13.766666666666667 8.596103333333335 7.029
329 1 11.8 7.612770000000001 9.372
330 1 13.766666666666667 8.596103333333335 11.715
331 1 11.8 7.612770000000001 14.058
332 1 13.766666666666667 8.596103333333335 16.401
333 1 11.8 7.612770000000001 18.744
334 1 13.766666666666667 8.596103333333335 21.087
335 1 11.8 7.612770000000001 23.43
336 1 13.766666666666667 8.596103333333335 25.773
337 1 11.8 10.150360000000001 0.0
338 1 13.766666666666667 11.133693333333333 2.343
339 1 11.8 10.150360000000001 4.686
340 1 13.766666666666667 11.133693333333333 7.029
341 1 11.8 10.150360000000001 9.372
342 1 13.766666666666667 11.133693333333333 11.715
343 1 11.8 10.150360000000001 14.058
344 1 13.766666666666667 11.133693333333333 16.401
345 1 11.8 10.150360000000001 18.744
346 1 13.766666666666667 11.133693333333333 21.087
347 1 11.8 10.150360000000001 23.43
348 1 13.766666666666667 11.133693333333333 25.773
349 1 11.8 12.68795 0.0
350 1 13.766666666666667 13.671283333333335 2.343
351 1 11.8 12.68795 4.686
352 1 13.766666666666667 13.671283333333335 7.029
353 1 11.8 12.68795 9.372
354 1 13.766666666666667 13.671283333333335 11.715
355 1 11.8 12.68795 14.058
356 1 13.766666666666667 13.671283333333335 16.401
357 1 11.8 12.68795 18.744
358 1 13.766666666666667 13.671283333333335 21.087
359 1 11.8 12.68795 23.43
360 1 13.766666666666667 13.671283333333335 25.773
361 1 14.75 0.0 0.0
362 1 16.71666666666667 0.9833333333333334 2.343
363 1 14.75 0.0 4.686
364 1 16.71666666666667 0.9833333333333334 7.029
365 1 14.75 0.0 9.372
366 1 16.71666666666667 0.9833333333333334 11.715
367 1 14.75 0.0 14.058
368 1 16.71666666666667 0.9833333333333334 16.401
369 1 14.75 0.0 18.744
370 1 16.71666666666667 0.9833333333333334 21.087
371 1 14.75 0.0 23.43
372 1 16.71666666666667 0.9833333333333334 25.773
373 1 14.75 2.5375900000000002 0.0
374 1 16.71666666666667 3.5209233333333336 2.343
375 1 14.75 2.5375900000000002 4.686
376 1 16.71666666666667 3.5209233333333336 7.029
377 1 14.75 2.5375900000000002 9.372
378 1 16.71666666666667 3.5209233333333336 11.715
379 1 14.75 2.5375900000000002 14.058
380 1 16.71666666666667 3.5209233333333336 16.401
381 1 14.75 2.5375900000000002 18.744
382 1 16.71666666666667 3.5209233333333336 21.087
383 1 14.75 2.5375900000000002 23.43
384 1 16.71666666666667 3.5209233333333336 25.773
385 1 14.75 5.0751800000000005 0.0
386 1 16.71666666666667 6.058513333333334 2.343
387 1 14.75 5.0751800000000005 4.686
388 1 16.71666666666667 6.058513333333334 7.029
389 1 14.75 5.0751800000000005 9.372
390 1 16.71666666666667 6.058513333333334 11.715
391 1 14.75 5.0751800000000005 14.058
392 1 16.71666666666667 6.058513333333334 16.401
393 1 14.75 5.0751800000000005 18.744
394 1 16.71666666666667 6.058513333333334 21.087
395 1 14.75 5.0751800000000005 23.43
396 1 16.71666666666667 6.058513333333334 25.773
397 1 14.75 7.612770000000001 0.0
398 1 16.71666666666667 8.596103333333335 2.343
399 1 14.75 7.612770000000001 4.686
400 1 16.71666666666667 8.596103333333335 7.029
401 1 14.75 7.612770000000001 9.372
402 1 16.71666666666667 8.596103333333335 11.715
403 1 14.75 7.612770000000001 14.058
404 1 16.71666666666667 8.596103333333335 16.401
405 1 14.75 7.612770000000001 18.744
406 1 16.71666666666667 8.596103333333335 21.087
407 1 14.75 7.612770000000001 23.43
408 1 16.71666666666667 8.596103333333335 25.773
409 1 14.75 10.150360000000001 0.0
410 1 16.71666666666667 11.133693333333333 2.343
411 1 14.75 10.150360000000001 4.686
412 1 16.71666666666667 11.133693333333333 7.029
413 1 14.75 10.150360000000001 9.372
414 1 16.71666666666667 11.133693333333333 11.715
415 1 14.75 10.150360000000001 14.058
416 1 16.71666666666667 11.133693333333333 16.401
417 1 14.75 10.150360000000001 18.744
418 1 16.71666666666667 11.133693333333333 21.087
419 1 14.75 10.150360000000001 23.43
420 1 16.71666666666667 11.133693333333333 25.773
421 1 14.75 12.68795 0.0
422 1 16.71666666666667 13.671283333333335 2.343
423 1 14.75 12.68795 4.686
424 1 16.71666666666667 13.671283333333335 7.029
425 1 14.75 12.68795 9.372
426 1 16.71666666666667 13.671283333333335 11.715
427 1 14.75 12.68795 14.058
428 1 16.71666666666667 13.671283333333335 16.401
429 1 14.75 12.68795 18.744
430 1 16.71666666666667 13.671283333333335 21.087
431 1 14.75 12.68795 23.43
432 1 16.71666666666667 13.671283333333335 25.773
