Start File for LAMMPS
2048 atoms
1 atom types

0.0 26.48 xlo xhi
0.0 26.48 ylo yhi
0.0 26.48 zlo zhi

Masses

1 47.68 

Atoms

1 1 0.0 0.0 0.0
2 1 1.655 1.655 0.0
3 1 1.655 0.0 1.655
4 1 0.0 1.655 1.655
5 1 0.0 0.0 3.31
6 1 1.655 1.655 3.31
7 1 1.655 0.0 4.965
8 1 0.0 1.655 4.965
9 1 0.0 0.0 6.62
10 1 1.655 1.655 6.62
11 1 1.655 0.0 8.275
12 1 0.0 1.655 8.275
13 1 0.0 0.0 9.93
14 1 1.655 1.655 9.93
15 1 1.655 0.0 11.584999999999999
16 1 0.0 1.655 11.584999999999999
17 1 0.0 0.0 13.24
18 1 1.655 1.655 13.24
19 1 1.655 0.0 14.895
20 1 0.0 1.655 14.895
21 1 0.0 0.0 16.55
22 1 1.655 1.655 16.55
23 1 1.655 0.0 18.205000000000002
24 1 0.0 1.655 18.205000000000002
25 1 0.0 0.0 19.86
26 1 1.655 1.655 19.86
27 1 1.655 0.0 21.515
28 1 0.0 1.655 21.515
29 1 0.0 0.0 23.17
30 1 1.655 1.655 23.17
31 1 1.655 0.0 24.825000000000003
32 1 0.0 1.655 24.825000000000003
33 1 0.0 3.31 0.0
34 1 1.655 4.965 0.0
35 1 1.655 3.31 1.655
36 1 0.0 4.965 1.655
37 1 0.0 3.31 3.31
38 1 1.655 4.965 3.31
39 1 1.655 3.31 4.965
40 1 0.0 4.965 4.965
41 1 0.0 3.31 6.62
42 1 1.655 4.965 6.62
43 1 1.655 3.31 8.275
44 1 0.0 4.965 8.275
45 1 0.0 3.31 9.93
46 1 1.655 4.965 9.93
47 1 1.655 3.31 11.584999999999999
48 1 0.0 4.965 11.584999999999999
49 1 0.0 3.31 13.24
50 1 1.655 4.965 13.24
51 1 1.655 3.31 14.895
52 1 0.0 4.965 14.895
53 1 0.0 3.31 16.55
54 1 1.655 4.965 16.55
55 1 1.655 3.31 18.205000000000002
56 1 0.0 4.965 18.205000000000002
57 1 0.0 3.31 19.86
58 1 1.655 4.965 19.86
59 1 1.655 3.31 21.515
60 1 0.0 4.965 21.515
61 1 0.0 3.31 23.17
62 1 1.655 4.965 23.17
63 1 1.655 3.31 24.825000000000003
64 1 0.0 4.965 24.825000000000003
65 1 0.0 6.62 0.0
66 1 1.655 8.275 0.0
67 1 1.655 6.62 1.655
68 1 0.0 8.275 1.655
69 1 0.0 6.62 3.31
70 1 1.655 8.275 3.31
71 1 1.655 6.62 4.965
72 1 0.0 8.275 4.965
73 1 0.0 6.62 6.62
74 1 1.655 8.275 6.62
75 1 1.655 6.62 8.275
76 1 0.0 8.275 8.275
77 1 0.0 6.62 9.93
78 1 1.655 8.275 9.93
79 1 1.655 6.62 11.584999999999999
80 1 0.0 8.275 11.584999999999999
81 1 0.0 6.62 13.24
82 1 1.655 8.275 13.24
83 1 1.655 6.62 14.895
84 1 0.0 8.275 14.895
85 1 0.0 6.62 16.55
86 1 1.655 8.275 16.55
87 1 1.655 6.62 18.205000000000002
88 1 0.0 8.275 18.205000000000002
89 1 0.0 6.62 19.86
90 1 1.655 8.275 19.86
91 1 1.655 6.62 21.515
92 1 0.0 8.275 21.515
93 1 0.0 6.62 23.17
94 1 1.655 8.275 23.17
95 1 1.655 6.62 24.825000000000003
96 1 0.0 8.275 24.825000000000003
97 1 0.0 9.93 0.0
98 1 1.655 11.584999999999999 0.0
99 1 1.655 9.93 1.655
100 1 0.0 11.584999999999999 1.655
101 1 0.0 9.93 3.31
102 1 1.655 11.584999999999999 3.31
103 1 1.655 9.93 4.965
104 1 0.0 11.584999999999999 4.965
105 1 0.0 9.93 6.62
106 1 1.655 11.584999999999999 6.62
107 1 1.655 9.93 8.275
108 1 0.0 11.584999999999999 8.275
109 1 0.0 9.93 9.93
110 1 1.655 11.584999999999999 9.93
111 1 1.655 9.93 11.584999999999999
112 1 0.0 11.584999999999999 11.584999999999999
113 1 0.0 9.93 13.24
114 1 1.655 11.584999999999999 13.24
115 1 1.655 9.93 14.895
116 1 0.0 11.584999999999999 14.895
117 1 0.0 9.93 16.55
118 1 1.655 11.584999999999999 16.55
119 1 1.655 9.93 18.205000000000002
120 1 0.0 11.584999999999999 18.205000000000002
121 1 0.0 9.93 19.86
122 1 1.655 11.584999999999999 19.86
123 1 1.655 9.93 21.515
124 1 0.0 11.584999999999999 21.515
125 1 0.0 9.93 23.17
126 1 1.655 11.584999999999999 23.17
127 1 1.655 9.93 24.825000000000003
128 1 0.0 11.584999999999999 24.825000000000003
129 1 0.0 13.24 0.0
130 1 1.655 14.895 0.0
131 1 1.655 13.24 1.655
132 1 0.0 14.895 1.655
133 1 0.0 13.24 3.31
134 1 1.655 14.895 3.31
135 1 1.655 13.24 4.965
136 1 0.0 14.895 4.965
137 1 0.0 13.24 6.62
138 1 1.655 14.895 6.62
139 1 1.655 13.24 8.275
140 1 0.0 14.895 8.275
141 1 0.0 13.24 9.93
142 1 1.655 14.895 9.93
143 1 1.655 13.24 11.584999999999999
144 1 0.0 14.895 11.584999999999999
145 1 0.0 13.24 13.24
146 1 1.655 14.895 13.24
147 1 1.655 13.24 14.895
148 1 0.0 14.895 14.895
149 1 0.0 13.24 16.55
150 1 1.655 14.895 16.55
151 1 1.655 13.24 18.205000000000002
152 1 0.0 14.895 18.205000000000002
153 1 0.0 13.24 19.86
154 1 1.655 14.895 19.86
155 1 1.655 13.24 21.515
156 1 0.0 14.895 21.515
157 1 0.0 13.24 23.17
158 1 1.655 14.895 23.17
159 1 1.655 13.24 24.825000000000003
160 1 0.0 14.895 24.825000000000003
161 1 0.0 16.55 0.0
162 1 1.655 18.205000000000002 0.0
163 1 1.655 16.55 1.655
164 1 0.0 18.205000000000002 1.655
165 1 0.0 16.55 3.31
166 1 1.655 18.205000000000002 3.31
167 1 1.655 16.55 4.965
168 1 0.0 18.205000000000002 4.965
169 1 0.0 16.55 6.62
170 1 1.655 18.205000000000002 6.62
171 1 1.655 16.55 8.275
172 1 0.0 18.205000000000002 8.275
173 1 0.0 16.55 9.93
174 1 1.655 18.205000000000002 9.93
175 1 1.655 16.55 11.584999999999999
176 1 0.0 18.205000000000002 11.584999999999999
177 1 0.0 16.55 13.24
178 1 1.655 18.205000000000002 13.24
179 1 1.655 16.55 14.895
180 1 0.0 18.205000000000002 14.895
181 1 0.0 16.55 16.55
182 1 1.655 18.205000000000002 16.55
183 1 1.655 16.55 18.205000000000002
184 1 0.0 18.205000000000002 18.205000000000002
185 1 0.0 16.55 19.86
186 1 1.655 18.205000000000002 19.86
187 1 1.655 16.55 21.515
188 1 0.0 18.205000000000002 21.515
189 1 0.0 16.55 23.17
190 1 1.655 18.205000000000002 23.17
191 1 1.655 16.55 24.825000000000003
192 1 0.0 18.205000000000002 24.825000000000003
193 1 0.0 19.86 0.0
194 1 1.655 21.515 0.0
195 1 1.655 19.86 1.655
196 1 0.0 21.515 1.655
197 1 0.0 19.86 3.31
198 1 1.655 21.515 3.31
199 1 1.655 19.86 4.965
200 1 0.0 21.515 4.965
201 1 0.0 19.86 6.62
202 1 1.655 21.515 6.62
203 1 1.655 19.86 8.275
204 1 0.0 21.515 8.275
205 1 0.0 19.86 9.93
206 1 1.655 21.515 9.93
207 1 1.655 19.86 11.584999999999999
208 1 0.0 21.515 11.584999999999999
209 1 0.0 19.86 13.24
210 1 1.655 21.515 13.24
211 1 1.655 19.86 14.895
212 1 0.0 21.515 14.895
213 1 0.0 19.86 16.55
214 1 1.655 21.515 16.55
215 1 1.655 19.86 18.205000000000002
216 1 0.0 21.515 18.205000000000002
217 1 0.0 19.86 19.86
218 1 1.655 21.515 19.86
219 1 1.655 19.86 21.515
220 1 0.0 21.515 21.515
221 1 0.0 19.86 23.17
222 1 1.655 21.515 23.17
223 1 1.655 19.86 24.825000000000003
224 1 0.0 21.515 24.825000000000003
225 1 0.0 23.17 0.0
226 1 1.655 24.825000000000003 0.0
227 1 1.655 23.17 1.655
228 1 0.0 24.825000000000003 1.655
229 1 0.0 23.17 3.31
230 1 1.655 24.825000000000003 3.31
231 1 1.655 23.17 4.965
232 1 0.0 24.825000000000003 4.965
233 1 0.0 23.17 6.62
234 1 1.655 24.825000000000003 6.62
235 1 1.655 23.17 8.275
236 1 0.0 24.825000000000003 8.275
237 1 0.0 23.17 9.93
238 1 1.655 24.825000000000003 9.93
239 1 1.655 23.17 11.584999999999999
240 1 0.0 24.825000000000003 11.584999999999999
241 1 0.0 23.17 13.24
242 1 1.655 24.825000000000003 13.24
243 1 1.655 23.17 14.895
244 1 0.0 24.825000000000003 14.895
245 1 0.0 23.17 16.55
246 1 1.655 24.825000000000003 16.55
247 1 1.655 23.17 18.205000000000002
248 1 0.0 24.825000000000003 18.205000000000002
249 1 0.0 23.17 19.86
250 1 1.655 24.825000000000003 19.86
251 1 1.655 23.17 21.515
252 1 0.0 24.825000000000003 21.515
253 1 0.0 23.17 23.17
254 1 1.655 24.825000000000003 23.17
255 1 1.655 23.17 24.825000000000003
256 1 0.0 24.825000000000003 24.825000000000003
257 1 3.31 0.0 0.0
258 1 4.965 1.655 0.0
259 1 4.965 0.0 1.655
260 1 3.31 1.655 1.655
261 1 3.31 0.0 3.31
262 1 4.965 1.655 3.31
263 1 4.965 0.0 4.965
264 1 3.31 1.655 4.965
265 1 3.31 0.0 6.62
266 1 4.965 1.655 6.62
267 1 4.965 0.0 8.275
268 1 3.31 1.655 8.275
269 1 3.31 0.0 9.93
270 1 4.965 1.655 9.93
271 1 4.965 0.0 11.584999999999999
272 1 3.31 1.655 11.584999999999999
273 1 3.31 0.0 13.24
274 1 4.965 1.655 13.24
275 1 4.965 0.0 14.895
276 1 3.31 1.655 14.895
277 1 3.31 0.0 16.55
278 1 4.965 1.655 16.55
279 1 4.965 0.0 18.205000000000002
280 1 3.31 1.655 18.205000000000002
281 1 3.31 0.0 19.86
282 1 4.965 1.655 19.86
283 1 4.965 0.0 21.515
284 1 3.31 1.655 21.515
285 1 3.31 0.0 23.17
286 1 4.965 1.655 23.17
287 1 4.965 0.0 24.825000000000003
288 1 3.31 1.655 24.825000000000003
289 1 3.31 3.31 0.0
290 1 4.965 4.965 0.0
291 1 4.965 3.31 1.655
292 1 3.31 4.965 1.655
293 1 3.31 3.31 3.31
294 1 4.965 4.965 3.31
295 1 4.965 3.31 4.965
296 1 3.31 4.965 4.965
297 1 3.31 3.31 6.62
298 1 4.965 4.965 6.62
299 1 4.965 3.31 8.275
300 1 3.31 4.965 8.275
301 1 3.31 3.31 9.93
302 1 4.965 4.965 9.93
303 1 4.965 3.31 11.584999999999999
304 1 3.31 4.965 11.584999999999999
305 1 3.31 3.31 13.24
306 1 4.965 4.965 13.24
307 1 4.965 3.31 14.895
308 1 3.31 4.965 14.895
309 1 3.31 3.31 16.55
310 1 4.965 4.965 16.55
311 1 4.965 3.31 18.205000000000002
312 1 3.31 4.965 18.205000000000002
313 1 3.31 3.31 19.86
314 1 4.965 4.965 19.86
315 1 4.965 3.31 21.515
316 1 3.31 4.965 21.515
317 1 3.31 3.31 23.17
318 1 4.965 4.965 23.17
319 1 4.965 3.31 24.825000000000003
320 1 3.31 4.965 24.825000000000003
321 1 3.31 6.62 0.0
322 1 4.965 8.275 0.0
323 1 4.965 6.62 1.655
324 1 3.31 8.275 1.655
325 1 3.31 6.62 3.31
326 1 4.965 8.275 3.31
327 1 4.965 6.62 4.965
328 1 3.31 8.275 4.965
329 1 3.31 6.62 6.62
330 1 4.965 8.275 6.62
331 1 4.965 6.62 8.275
332 1 3.31 8.275 8.275
333 1 3.31 6.62 9.93
334 1 4.965 8.275 9.93
335 1 4.965 6.62 11.584999999999999
336 1 3.31 8.275 11.584999999999999
337 1 3.31 6.62 13.24
338 1 4.965 8.275 13.24
339 1 4.965 6.62 14.895
340 1 3.31 8.275 14.895
341 1 3.31 6.62 16.55
342 1 4.965 8.275 16.55
343 1 4.965 6.62 18.205000000000002
344 1 3.31 8.275 18.205000000000002
345 1 3.31 6.62 19.86
346 1 4.965 8.275 19.86
347 1 4.965 6.62 21.515
348 1 3.31 8.275 21.515
349 1 3.31 6.62 23.17
350 1 4.965 8.275 23.17
351 1 4.965 6.62 24.825000000000003
352 1 3.31 8.275 24.825000000000003
353 1 3.31 9.93 0.0
354 1 4.965 11.584999999999999 0.0
355 1 4.965 9.93 1.655
356 1 3.31 11.584999999999999 1.655
357 1 3.31 9.93 3.31
358 1 4.965 11.584999999999999 3.31
359 1 4.965 9.93 4.965
360 1 3.31 11.584999999999999 4.965
361 1 3.31 9.93 6.62
362 1 4.965 11.584999999999999 6.62
363 1 4.965 9.93 8.275
364 1 3.31 11.584999999999999 8.275
365 1 3.31 9.93 9.93
366 1 4.965 11.584999999999999 9.93
367 1 4.965 9.93 11.584999999999999
368 1 3.31 11.584999999999999 11.584999999999999
369 1 3.31 9.93 13.24
370 1 4.965 11.584999999999999 13.24
371 1 4.965 9.93 14.895
372 1 3.31 11.584999999999999 14.895
373 1 3.31 9.93 16.55
374 1 4.965 11.584999999999999 16.55
375 1 4.965 9.93 18.205000000000002
376 1 3.31 11.584999999999999 18.205000000000002
377 1 3.31 9.93 19.86
378 1 4.965 11.584999999999999 19.86
379 1 4.965 9.93 21.515
380 1 3.31 11.584999999999999 21.515
381 1 3.31 9.93 23.17
382 1 4.965 11.584999999999999 23.17
383 1 4.965 9.93 24.825000000000003
384 1 3.31 11.584999999999999 24.825000000000003
385 1 3.31 13.24 0.0
386 1 4.965 14.895 0.0
387 1 4.965 13.24 1.655
388 1 3.31 14.895 1.655
389 1 3.31 13.24 3.31
390 1 4.965 14.895 3.31
391 1 4.965 13.24 4.965
392 1 3.31 14.895 4.965
393 1 3.31 13.24 6.62
394 1 4.965 14.895 6.62
395 1 4.965 13.24 8.275
396 1 3.31 14.895 8.275
397 1 3.31 13.24 9.93
398 1 4.965 14.895 9.93
399 1 4.965 13.24 11.584999999999999
400 1 3.31 14.895 11.584999999999999
401 1 3.31 13.24 13.24
402 1 4.965 14.895 13.24
403 1 4.965 13.24 14.895
404 1 3.31 14.895 14.895
405 1 3.31 13.24 16.55
406 1 4.965 14.895 16.55
407 1 4.965 13.24 18.205000000000002
408 1 3.31 14.895 18.205000000000002
409 1 3.31 13.24 19.86
410 1 4.965 14.895 19.86
411 1 4.965 13.24 21.515
412 1 3.31 14.895 21.515
413 1 3.31 13.24 23.17
414 1 4.965 14.895 23.17
415 1 4.965 13.24 24.825000000000003
416 1 3.31 14.895 24.825000000000003
417 1 3.31 16.55 0.0
418 1 4.965 18.205000000000002 0.0
419 1 4.965 16.55 1.655
420 1 3.31 18.205000000000002 1.655
421 1 3.31 16.55 3.31
422 1 4.965 18.205000000000002 3.31
423 1 4.965 16.55 4.965
424 1 3.31 18.205000000000002 4.965
425 1 3.31 16.55 6.62
426 1 4.965 18.205000000000002 6.62
427 1 4.965 16.55 8.275
428 1 3.31 18.205000000000002 8.275
429 1 3.31 16.55 9.93
430 1 4.965 18.205000000000002 9.93
431 1 4.965 16.55 11.584999999999999
432 1 3.31 18.205000000000002 11.584999999999999
433 1 3.31 16.55 13.24
434 1 4.965 18.205000000000002 13.24
435 1 4.965 16.55 14.895
436 1 3.31 18.205000000000002 14.895
437 1 3.31 16.55 16.55
438 1 4.965 18.205000000000002 16.55
439 1 4.965 16.55 18.205000000000002
440 1 3.31 18.205000000000002 18.205000000000002
441 1 3.31 16.55 19.86
442 1 4.965 18.205000000000002 19.86
443 1 4.965 16.55 21.515
444 1 3.31 18.205000000000002 21.515
445 1 3.31 16.55 23.17
446 1 4.965 18.205000000000002 23.17
447 1 4.965 16.55 24.825000000000003
448 1 3.31 18.205000000000002 24.825000000000003
449 1 3.31 19.86 0.0
450 1 4.965 21.515 0.0
451 1 4.965 19.86 1.655
452 1 3.31 21.515 1.655
453 1 3.31 19.86 3.31
454 1 4.965 21.515 3.31
455 1 4.965 19.86 4.965
456 1 3.31 21.515 4.965
457 1 3.31 19.86 6.62
458 1 4.965 21.515 6.62
459 1 4.965 19.86 8.275
460 1 3.31 21.515 8.275
461 1 3.31 19.86 9.93
462 1 4.965 21.515 9.93
463 1 4.965 19.86 11.584999999999999
464 1 3.31 21.515 11.584999999999999
465 1 3.31 19.86 13.24
466 1 4.965 21.515 13.24
467 1 4.965 19.86 14.895
468 1 3.31 21.515 14.895
469 1 3.31 19.86 16.55
470 1 4.965 21.515 16.55
471 1 4.965 19.86 18.205000000000002
472 1 3.31 21.515 18.205000000000002
473 1 3.31 19.86 19.86
474 1 4.965 21.515 19.86
475 1 4.965 19.86 21.515
476 1 3.31 21.515 21.515
477 1 3.31 19.86 23.17
478 1 4.965 21.515 23.17
479 1 4.965 19.86 24.825000000000003
480 1 3.31 21.515 24.825000000000003
481 1 3.31 23.17 0.0
482 1 4.965 24.825000000000003 0.0
483 1 4.965 23.17 1.655
484 1 3.31 24.825000000000003 1.655
485 1 3.31 23.17 3.31
486 1 4.965 24.825000000000003 3.31
487 1 4.965 23.17 4.965
488 1 3.31 24.825000000000003 4.965
489 1 3.31 23.17 6.62
490 1 4.965 24.825000000000003 6.62
491 1 4.965 23.17 8.275
492 1 3.31 24.825000000000003 8.275
493 1 3.31 23.17 9.93
494 1 4.965 24.825000000000003 9.93
495 1 4.965 23.17 11.584999999999999
496 1 3.31 24.825000000000003 11.584999999999999
497 1 3.31 23.17 13.24
498 1 4.965 24.825000000000003 13.24
499 1 4.965 23.17 14.895
500 1 3.31 24.825000000000003 14.895
501 1 3.31 23.17 16.55
502 1 4.965 24.825000000000003 16.55
503 1 4.965 23.17 18.205000000000002
504 1 3.31 24.825000000000003 18.205000000000002
505 1 3.31 23.17 19.86
506 1 4.965 24.825000000000003 19.86
507 1 4.965 23.17 21.515
508 1 3.31 24.825000000000003 21.515
509 1 3.31 23.17 23.17
510 1 4.965 24.825000000000003 23.17
511 1 4.965 23.17 24.825000000000003
512 1 3.31 24.825000000000003 24.825000000000003
513 1 6.62 0.0 0.0
514 1 8.275 1.655 0.0
515 1 8.275 0.0 1.655
516 1 6.62 1.655 1.655
517 1 6.62 0.0 3.31
518 1 8.275 1.655 3.31
519 1 8.275 0.0 4.965
520 1 6.62 1.655 4.965
521 1 6.62 0.0 6.62
522 1 8.275 1.655 6.62
523 1 8.275 0.0 8.275
524 1 6.62 1.655 8.275
525 1 6.62 0.0 9.93
526 1 8.275 1.655 9.93
527 1 8.275 0.0 11.584999999999999
528 1 6.62 1.655 11.584999999999999
529 1 6.62 0.0 13.24
530 1 8.275 1.655 13.24
531 1 8.275 0.0 14.895
532 1 6.62 1.655 14.895
533 1 6.62 0.0 16.55
534 1 8.275 1.655 16.55
535 1 8.275 0.0 18.205000000000002
536 1 6.62 1.655 18.205000000000002
537 1 6.62 0.0 19.86
538 1 8.275 1.655 19.86
539 1 8.275 0.0 21.515
540 1 6.62 1.655 21.515
541 1 6.62 0.0 23.17
542 1 8.275 1.655 23.17
543 1 8.275 0.0 24.825000000000003
544 1 6.62 1.655 24.825000000000003
545 1 6.62 3.31 0.0
546 1 8.275 4.965 0.0
547 1 8.275 3.31 1.655
548 1 6.62 4.965 1.655
549 1 6.62 3.31 3.31
550 1 8.275 4.965 3.31
551 1 8.275 3.31 4.965
552 1 6.62 4.965 4.965
553 1 6.62 3.31 6.62
554 1 8.275 4.965 6.62
555 1 8.275 3.31 8.275
556 1 6.62 4.965 8.275
557 1 6.62 3.31 9.93
558 1 8.275 4.965 9.93
559 1 8.275 3.31 11.584999999999999
560 1 6.62 4.965 11.584999999999999
561 1 6.62 3.31 13.24
562 1 8.275 4.965 13.24
563 1 8.275 3.31 14.895
564 1 6.62 4.965 14.895
565 1 6.62 3.31 16.55
566 1 8.275 4.965 16.55
567 1 8.275 3.31 18.205000000000002
568 1 6.62 4.965 18.205000000000002
569 1 6.62 3.31 19.86
570 1 8.275 4.965 19.86
571 1 8.275 3.31 21.515
572 1 6.62 4.965 21.515
573 1 6.62 3.31 23.17
574 1 8.275 4.965 23.17
575 1 8.275 3.31 24.825000000000003
576 1 6.62 4.965 24.825000000000003
577 1 6.62 6.62 0.0
578 1 8.275 8.275 0.0
579 1 8.275 6.62 1.655
580 1 6.62 8.275 1.655
581 1 6.62 6.62 3.31
582 1 8.275 8.275 3.31
583 1 8.275 6.62 4.965
584 1 6.62 8.275 4.965
585 1 6.62 6.62 6.62
586 1 8.275 8.275 6.62
587 1 8.275 6.62 8.275
588 1 6.62 8.275 8.275
589 1 6.62 6.62 9.93
590 1 8.275 8.275 9.93
591 1 8.275 6.62 11.584999999999999
592 1 6.62 8.275 11.584999999999999
593 1 6.62 6.62 13.24
594 1 8.275 8.275 13.24
595 1 8.275 6.62 14.895
596 1 6.62 8.275 14.895
597 1 6.62 6.62 16.55
598 1 8.275 8.275 16.55
599 1 8.275 6.62 18.205000000000002
600 1 6.62 8.275 18.205000000000002
601 1 6.62 6.62 19.86
602 1 8.275 8.275 19.86
603 1 8.275 6.62 21.515
604 1 6.62 8.275 21.515
605 1 6.62 6.62 23.17
606 1 8.275 8.275 23.17
607 1 8.275 6.62 24.825000000000003
608 1 6.62 8.275 24.825000000000003
609 1 6.62 9.93 0.0
610 1 8.275 11.584999999999999 0.0
611 1 8.275 9.93 1.655
612 1 6.62 11.584999999999999 1.655
613 1 6.62 9.93 3.31
614 1 8.275 11.584999999999999 3.31
615 1 8.275 9.93 4.965
616 1 6.62 11.584999999999999 4.965
617 1 6.62 9.93 6.62
618 1 8.275 11.584999999999999 6.62
619 1 8.275 9.93 8.275
620 1 6.62 11.584999999999999 8.275
621 1 6.62 9.93 9.93
622 1 8.275 11.584999999999999 9.93
623 1 8.275 9.93 11.584999999999999
624 1 6.62 11.584999999999999 11.584999999999999
625 1 6.62 9.93 13.24
626 1 8.275 11.584999999999999 13.24
627 1 8.275 9.93 14.895
628 1 6.62 11.584999999999999 14.895
629 1 6.62 9.93 16.55
630 1 8.275 11.584999999999999 16.55
631 1 8.275 9.93 18.205000000000002
632 1 6.62 11.584999999999999 18.205000000000002
633 1 6.62 9.93 19.86
634 1 8.275 11.584999999999999 19.86
635 1 8.275 9.93 21.515
636 1 6.62 11.584999999999999 21.515
637 1 6.62 9.93 23.17
638 1 8.275 11.584999999999999 23.17
639 1 8.275 9.93 24.825000000000003
640 1 6.62 11.584999999999999 24.825000000000003
641 1 6.62 13.24 0.0
642 1 8.275 14.895 0.0
643 1 8.275 13.24 1.655
644 1 6.62 14.895 1.655
645 1 6.62 13.24 3.31
646 1 8.275 14.895 3.31
647 1 8.275 13.24 4.965
648 1 6.62 14.895 4.965
649 1 6.62 13.24 6.62
650 1 8.275 14.895 6.62
651 1 8.275 13.24 8.275
652 1 6.62 14.895 8.275
653 1 6.62 13.24 9.93
654 1 8.275 14.895 9.93
655 1 8.275 13.24 11.584999999999999
656 1 6.62 14.895 11.584999999999999
657 1 6.62 13.24 13.24
658 1 8.275 14.895 13.24
659 1 8.275 13.24 14.895
660 1 6.62 14.895 14.895
661 1 6.62 13.24 16.55
662 1 8.275 14.895 16.55
663 1 8.275 13.24 18.205000000000002
664 1 6.62 14.895 18.205000000000002
665 1 6.62 13.24 19.86
666 1 8.275 14.895 19.86
667 1 8.275 13.24 21.515
668 1 6.62 14.895 21.515
669 1 6.62 13.24 23.17
670 1 8.275 14.895 23.17
671 1 8.275 13.24 24.825000000000003
672 1 6.62 14.895 24.825000000000003
673 1 6.62 16.55 0.0
674 1 8.275 18.205000000000002 0.0
675 1 8.275 16.55 1.655
676 1 6.62 18.205000000000002 1.655
677 1 6.62 16.55 3.31
678 1 8.275 18.205000000000002 3.31
679 1 8.275 16.55 4.965
680 1 6.62 18.205000000000002 4.965
681 1 6.62 16.55 6.62
682 1 8.275 18.205000000000002 6.62
683 1 8.275 16.55 8.275
684 1 6.62 18.205000000000002 8.275
685 1 6.62 16.55 9.93
686 1 8.275 18.205000000000002 9.93
687 1 8.275 16.55 11.584999999999999
688 1 6.62 18.205000000000002 11.584999999999999
689 1 6.62 16.55 13.24
690 1 8.275 18.205000000000002 13.24
691 1 8.275 16.55 14.895
692 1 6.62 18.205000000000002 14.895
693 1 6.62 16.55 16.55
694 1 8.275 18.205000000000002 16.55
695 1 8.275 16.55 18.205000000000002
696 1 6.62 18.205000000000002 18.205000000000002
697 1 6.62 16.55 19.86
698 1 8.275 18.205000000000002 19.86
699 1 8.275 16.55 21.515
700 1 6.62 18.205000000000002 21.515
701 1 6.62 16.55 23.17
702 1 8.275 18.205000000000002 23.17
703 1 8.275 16.55 24.825000000000003
704 1 6.62 18.205000000000002 24.825000000000003
705 1 6.62 19.86 0.0
706 1 8.275 21.515 0.0
707 1 8.275 19.86 1.655
708 1 6.62 21.515 1.655
709 1 6.62 19.86 3.31
710 1 8.275 21.515 3.31
711 1 8.275 19.86 4.965
712 1 6.62 21.515 4.965
713 1 6.62 19.86 6.62
714 1 8.275 21.515 6.62
715 1 8.275 19.86 8.275
716 1 6.62 21.515 8.275
717 1 6.62 19.86 9.93
718 1 8.275 21.515 9.93
719 1 8.275 19.86 11.584999999999999
720 1 6.62 21.515 11.584999999999999
721 1 6.62 19.86 13.24
722 1 8.275 21.515 13.24
723 1 8.275 19.86 14.895
724 1 6.62 21.515 14.895
725 1 6.62 19.86 16.55
726 1 8.275 21.515 16.55
727 1 8.275 19.86 18.205000000000002
728 1 6.62 21.515 18.205000000000002
729 1 6.62 19.86 19.86
730 1 8.275 21.515 19.86
731 1 8.275 19.86 21.515
732 1 6.62 21.515 21.515
733 1 6.62 19.86 23.17
734 1 8.275 21.515 23.17
735 1 8.275 19.86 24.825000000000003
736 1 6.62 21.515 24.825000000000003
737 1 6.62 23.17 0.0
738 1 8.275 24.825000000000003 0.0
739 1 8.275 23.17 1.655
740 1 6.62 24.825000000000003 1.655
741 1 6.62 23.17 3.31
742 1 8.275 24.825000000000003 3.31
743 1 8.275 23.17 4.965
744 1 6.62 24.825000000000003 4.965
745 1 6.62 23.17 6.62
746 1 8.275 24.825000000000003 6.62
747 1 8.275 23.17 8.275
748 1 6.62 24.825000000000003 8.275
749 1 6.62 23.17 9.93
750 1 8.275 24.825000000000003 9.93
751 1 8.275 23.17 11.584999999999999
752 1 6.62 24.825000000000003 11.584999999999999
753 1 6.62 23.17 13.24
754 1 8.275 24.825000000000003 13.24
755 1 8.275 23.17 14.895
756 1 6.62 24.825000000000003 14.895
757 1 6.62 23.17 16.55
758 1 8.275 24.825000000000003 16.55
759 1 8.275 23.17 18.205000000000002
760 1 6.62 24.825000000000003 18.205000000000002
761 1 6.62 23.17 19.86
762 1 8.275 24.825000000000003 19.86
763 1 8.275 23.17 21.515
764 1 6.62 24.825000000000003 21.515
765 1 6.62 23.17 23.17
766 1 8.275 24.825000000000003 23.17
767 1 8.275 23.17 24.825000000000003
768 1 6.62 24.825000000000003 24.825000000000003
769 1 9.93 0.0 0.0
770 1 11.584999999999999 1.655 0.0
771 1 11.584999999999999 0.0 1.655
772 1 9.93 1.655 1.655
773 1 9.93 0.0 3.31
774 1 11.584999999999999 1.655 3.31
775 1 11.584999999999999 0.0 4.965
776 1 9.93 1.655 4.965
777 1 9.93 0.0 6.62
778 1 11.584999999999999 1.655 6.62
779 1 11.584999999999999 0.0 8.275
780 1 9.93 1.655 8.275
781 1 9.93 0.0 9.93
782 1 11.584999999999999 1.655 9.93
783 1 11.584999999999999 0.0 11.584999999999999
784 1 9.93 1.655 11.584999999999999
785 1 9.93 0.0 13.24
786 1 11.584999999999999 1.655 13.24
787 1 11.584999999999999 0.0 14.895
788 1 9.93 1.655 14.895
789 1 9.93 0.0 16.55
790 1 11.584999999999999 1.655 16.55
791 1 11.584999999999999 0.0 18.205000000000002
792 1 9.93 1.655 18.205000000000002
793 1 9.93 0.0 19.86
794 1 11.584999999999999 1.655 19.86
795 1 11.584999999999999 0.0 21.515
796 1 9.93 1.655 21.515
797 1 9.93 0.0 23.17
798 1 11.584999999999999 1.655 23.17
799 1 11.584999999999999 0.0 24.825000000000003
800 1 9.93 1.655 24.825000000000003
801 1 9.93 3.31 0.0
802 1 11.584999999999999 4.965 0.0
803 1 11.584999999999999 3.31 1.655
804 1 9.93 4.965 1.655
805 1 9.93 3.31 3.31
806 1 11.584999999999999 4.965 3.31
807 1 11.584999999999999 3.31 4.965
808 1 9.93 4.965 4.965
809 1 9.93 3.31 6.62
810 1 11.584999999999999 4.965 6.62
811 1 11.584999999999999 3.31 8.275
812 1 9.93 4.965 8.275
813 1 9.93 3.31 9.93
814 1 11.584999999999999 4.965 9.93
815 1 11.584999999999999 3.31 11.584999999999999
816 1 9.93 4.965 11.584999999999999
817 1 9.93 3.31 13.24
818 1 11.584999999999999 4.965 13.24
819 1 11.584999999999999 3.31 14.895
820 1 9.93 4.965 14.895
821 1 9.93 3.31 16.55
822 1 11.584999999999999 4.965 16.55
823 1 11.584999999999999 3.31 18.205000000000002
824 1 9.93 4.965 18.205000000000002
825 1 9.93 3.31 19.86
826 1 11.584999999999999 4.965 19.86
827 1 11.584999999999999 3.31 21.515
828 1 9.93 4.965 21.515
829 1 9.93 3.31 23.17
830 1 11.584999999999999 4.965 23.17
831 1 11.584999999999999 3.31 24.825000000000003
832 1 9.93 4.965 24.825000000000003
833 1 9.93 6.62 0.0
834 1 11.584999999999999 8.275 0.0
835 1 11.584999999999999 6.62 1.655
836 1 9.93 8.275 1.655
837 1 9.93 6.62 3.31
838 1 11.584999999999999 8.275 3.31
839 1 11.584999999999999 6.62 4.965
840 1 9.93 8.275 4.965
841 1 9.93 6.62 6.62
842 1 11.584999999999999 8.275 6.62
843 1 11.584999999999999 6.62 8.275
844 1 9.93 8.275 8.275
845 1 9.93 6.62 9.93
846 1 11.584999999999999 8.275 9.93
847 1 11.584999999999999 6.62 11.584999999999999
848 1 9.93 8.275 11.584999999999999
849 1 9.93 6.62 13.24
850 1 11.584999999999999 8.275 13.24
851 1 11.584999999999999 6.62 14.895
852 1 9.93 8.275 14.895
853 1 9.93 6.62 16.55
854 1 11.584999999999999 8.275 16.55
855 1 11.584999999999999 6.62 18.205000000000002
856 1 9.93 8.275 18.205000000000002
857 1 9.93 6.62 19.86
858 1 11.584999999999999 8.275 19.86
859 1 11.584999999999999 6.62 21.515
860 1 9.93 8.275 21.515
861 1 9.93 6.62 23.17
862 1 11.584999999999999 8.275 23.17
863 1 11.584999999999999 6.62 24.825000000000003
864 1 9.93 8.275 24.825000000000003
865 1 9.93 9.93 0.0
866 1 11.584999999999999 11.584999999999999 0.0
867 1 11.584999999999999 9.93 1.655
868 1 9.93 11.584999999999999 1.655
869 1 9.93 9.93 3.31
870 1 11.584999999999999 11.584999999999999 3.31
871 1 11.584999999999999 9.93 4.965
872 1 9.93 11.584999999999999 4.965
873 1 9.93 9.93 6.62
874 1 11.584999999999999 11.584999999999999 6.62
875 1 11.584999999999999 9.93 8.275
876 1 9.93 11.584999999999999 8.275
877 1 9.93 9.93 9.93
878 1 11.584999999999999 11.584999999999999 9.93
879 1 11.584999999999999 9.93 11.584999999999999
880 1 9.93 11.584999999999999 11.584999999999999
881 1 9.93 9.93 13.24
882 1 11.584999999999999 11.584999999999999 13.24
883 1 11.584999999999999 9.93 14.895
884 1 9.93 11.584999999999999 14.895
885 1 9.93 9.93 16.55
886 1 11.584999999999999 11.584999999999999 16.55
887 1 11.584999999999999 9.93 18.205000000000002
888 1 9.93 11.584999999999999 18.205000000000002
889 1 9.93 9.93 19.86
890 1 11.584999999999999 11.584999999999999 19.86
891 1 11.584999999999999 9.93 21.515
892 1 9.93 11.584999999999999 21.515
893 1 9.93 9.93 23.17
894 1 11.584999999999999 11.584999999999999 23.17
895 1 11.584999999999999 9.93 24.825000000000003
896 1 9.93 11.584999999999999 24.825000000000003
897 1 9.93 13.24 0.0
898 1 11.584999999999999 14.895 0.0
899 1 11.584999999999999 13.24 1.655
900 1 9.93 14.895 1.655
901 1 9.93 13.24 3.31
902 1 11.584999999999999 14.895 3.31
903 1 11.584999999999999 13.24 4.965
904 1 9.93 14.895 4.965
905 1 9.93 13.24 6.62
906 1 11.584999999999999 14.895 6.62
907 1 11.584999999999999 13.24 8.275
908 1 9.93 14.895 8.275
909 1 9.93 13.24 9.93
910 1 11.584999999999999 14.895 9.93
911 1 11.584999999999999 13.24 11.584999999999999
912 1 9.93 14.895 11.584999999999999
913 1 9.93 13.24 13.24
914 1 11.584999999999999 14.895 13.24
915 1 11.584999999999999 13.24 14.895
916 1 9.93 14.895 14.895
917 1 9.93 13.24 16.55
918 1 11.584999999999999 14.895 16.55
919 1 11.584999999999999 13.24 18.205000000000002
920 1 9.93 14.895 18.205000000000002
921 1 9.93 13.24 19.86
922 1 11.584999999999999 14.895 19.86
923 1 11.584999999999999 13.24 21.515
924 1 9.93 14.895 21.515
925 1 9.93 13.24 23.17
926 1 11.584999999999999 14.895 23.17
927 1 11.584999999999999 13.24 24.825000000000003
928 1 9.93 14.895 24.825000000000003
929 1 9.93 16.55 0.0
930 1 11.584999999999999 18.205000000000002 0.0
931 1 11.584999999999999 16.55 1.655
932 1 9.93 18.205000000000002 1.655
933 1 9.93 16.55 3.31
934 1 11.584999999999999 18.205000000000002 3.31
935 1 11.584999999999999 16.55 4.965
936 1 9.93 18.205000000000002 4.965
937 1 9.93 16.55 6.62
938 1 11.584999999999999 18.205000000000002 6.62
939 1 11.584999999999999 16.55 8.275
940 1 9.93 18.205000000000002 8.275
941 1 9.93 16.55 9.93
942 1 11.584999999999999 18.205000000000002 9.93
943 1 11.584999999999999 16.55 11.584999999999999
944 1 9.93 18.205000000000002 11.584999999999999
945 1 9.93 16.55 13.24
946 1 11.584999999999999 18.205000000000002 13.24
947 1 11.584999999999999 16.55 14.895
948 1 9.93 18.205000000000002 14.895
949 1 9.93 16.55 16.55
950 1 11.584999999999999 18.205000000000002 16.55
951 1 11.584999999999999 16.55 18.205000000000002
952 1 9.93 18.205000000000002 18.205000000000002
953 1 9.93 16.55 19.86
954 1 11.584999999999999 18.205000000000002 19.86
955 1 11.584999999999999 16.55 21.515
956 1 9.93 18.205000000000002 21.515
957 1 9.93 16.55 23.17
958 1 11.584999999999999 18.205000000000002 23.17
959 1 11.584999999999999 16.55 24.825000000000003
960 1 9.93 18.205000000000002 24.825000000000003
961 1 9.93 19.86 0.0
962 1 11.584999999999999 21.515 0.0
963 1 11.584999999999999 19.86 1.655
964 1 9.93 21.515 1.655
965 1 9.93 19.86 3.31
966 1 11.584999999999999 21.515 3.31
967 1 11.584999999999999 19.86 4.965
968 1 9.93 21.515 4.965
969 1 9.93 19.86 6.62
970 1 11.584999999999999 21.515 6.62
971 1 11.584999999999999 19.86 8.275
972 1 9.93 21.515 8.275
973 1 9.93 19.86 9.93
974 1 11.584999999999999 21.515 9.93
975 1 11.584999999999999 19.86 11.584999999999999
976 1 9.93 21.515 11.584999999999999
977 1 9.93 19.86 13.24
978 1 11.584999999999999 21.515 13.24
979 1 11.584999999999999 19.86 14.895
980 1 9.93 21.515 14.895
981 1 9.93 19.86 16.55
982 1 11.584999999999999 21.515 16.55
983 1 11.584999999999999 19.86 18.205000000000002
984 1 9.93 21.515 18.205000000000002
985 1 9.93 19.86 19.86
986 1 11.584999999999999 21.515 19.86
987 1 11.584999999999999 19.86 21.515
988 1 9.93 21.515 21.515
989 1 9.93 19.86 23.17
990 1 11.584999999999999 21.515 23.17
991 1 11.584999999999999 19.86 24.825000000000003
992 1 9.93 21.515 24.825000000000003
993 1 9.93 23.17 0.0
994 1 11.584999999999999 24.825000000000003 0.0
995 1 11.584999999999999 23.17 1.655
996 1 9.93 24.825000000000003 1.655
997 1 9.93 23.17 3.31
998 1 11.584999999999999 24.825000000000003 3.31
999 1 11.584999999999999 23.17 4.965
1000 1 9.93 24.825000000000003 4.965
1001 1 9.93 23.17 6.62
1002 1 11.584999999999999 24.825000000000003 6.62
1003 1 11.584999999999999 23.17 8.275
1004 1 9.93 24.825000000000003 8.275
1005 1 9.93 23.17 9.93
1006 1 11.584999999999999 24.825000000000003 9.93
1007 1 11.584999999999999 23.17 11.584999999999999
1008 1 9.93 24.825000000000003 11.584999999999999
1009 1 9.93 23.17 13.24
1010 1 11.584999999999999 24.825000000000003 13.24
1011 1 11.584999999999999 23.17 14.895
1012 1 9.93 24.825000000000003 14.895
1013 1 9.93 23.17 16.55
1014 1 11.584999999999999 24.825000000000003 16.55
1015 1 11.584999999999999 23.17 18.205000000000002
1016 1 9.93 24.825000000000003 18.205000000000002
1017 1 9.93 23.17 19.86
1018 1 11.584999999999999 24.825000000000003 19.86